
     Program PWSCF v.6.5 starts on 25Jun2021 at 16:21:18 

     This program is part of the open-source Quantum ESPRESSO suite
     for quantum simulation of materials; please cite
         "P. Giannozzi et al., J. Phys.:Condens. Matter 21 395502 (2009);
         "P. Giannozzi et al., J. Phys.:Condens. Matter 29 465901 (2017);
          URL http://www.quantum-espresso.org", 
     in publications or presentations arising from this work. More details at
     http://www.quantum-espresso.org/quote

     Parallel version (MPI), running on    12 processors

     MPI processes distributed on     1 nodes
     R & G space division:  proc/nbgrp/npool/nimage =      12
     Reading input from dimer.in_vnscf_coords_7/qe.in
Warning: card &IONS ignored
Warning: card   ION_DYNAMICS='BFGS', ignored
Warning: card / ignored
Warning: card &CELL ignored
Warning: card  CELL_DYNAMICS = 'BFGS' ignored
Warning: card  CELL_DOFREE = 'ALL' ignored
Warning: card  CELL_FACTOR = 1.0 ignored
Warning: card / ignored
     Message from routine read_cards :
     DEPRECATED: no units specified in CELL_PARAMETERS card

     Current dimensions of program PWSCF are:
     Max number of different atomic species (ntypx) = 10
     Max number of k-points (npk) =  40000
     Max angular momentum in pseudopotentials (lmaxx) =  3
               file mg.pbesol.UPF: wavefunction(s)  3P renormalized

     Subspace diagonalization in iterative solution of the eigenvalue problem:
     one sub-group per band group will be used
     scalapack distributed-memory algorithm (size of sub-group:  3*  3 procs)

     Message from routine setup:
     using ibrav=0 with symmetry is DISCOURAGED, use correct ibrav instead
 
     Parallelization info
     --------------------
     sticks:   dense  smooth     PW     G-vecs:    dense   smooth      PW
     Min         325     233     64                21812    13325    1942
     Max         327     234     65                21815    13330    1947
     Sum        3909    2801    777               261761   159925   23349
 


     bravais-lattice index     =            0
     lattice parameter (alat)  =      14.0000  a.u.
     unit-cell volume          =    3920.0000 (a.u.)^3
     number of atoms/cell      =            2
     number of atomic types    =            2
     number of electrons       =        16.00
     number of Kohn-Sham states=           12
     kinetic-energy cutoff     =      45.0000  Ry
     charge density cutoff     =     250.0000  Ry
     convergence threshold     =      1.0E-09
     mixing beta               =       0.3000
     number of iterations used =            8  local-TF  mixing
     Exchange-correlation= SLA  PW   PSX  PSC
                           (   1   4  10   8   0   0   0)
     A smooth kinetic-energy cutoff is imposed at      44.5000 Ry
     height of the smooth step-function =             800.0000 Ry
     width of the smooth step-function  =               1.0000 Ry


     celldm(1)=  14.000000  celldm(2)=   0.000000  celldm(3)=   0.000000
     celldm(4)=   0.000000  celldm(5)=   0.000000  celldm(6)=   0.000000

     crystal axes: (cart. coord. in units of alat)
               a(1) = (   1.000000   0.000000   0.000000 )  
               a(2) = (   0.000000   1.000000   0.000000 )  
               a(3) = (   0.000000   0.000000   1.428571 )  

     reciprocal axes: (cart. coord. in units 2 pi/alat)
               b(1) = (  1.000000  0.000000  0.000000 )  
               b(2) = (  0.000000  1.000000  0.000000 )  
               b(3) = (  0.000000  0.000000  0.700000 )  


     PseudoPot. # 1 for Mg read from file:
     /home/kfg/codes/ThreeBodyTB.jl/src/../pseudo/gbrv_pbesol/mg.pbesol.UPF
     MD5 check sum: cbba17e5274afd115179030b10be074e
     Pseudo is Ultrasoft, Zval = 10.0
     Generated by new atomic code, or converted to UPF format
     Using radial grid of  821 points,  7 beta functions with: 
                l(1) =   0
                l(2) =   0
                l(3) =   0
                l(4) =   1
                l(5) =   1
                l(6) =   2
                l(7) =   2
     Q(r) pseudized with  8 coefficients,  rinner =    1.200   1.200   1.200
                                                       1.200   1.200

     PseudoPot. # 2 for S  read from file:
     /home/kfg/codes/ThreeBodyTB.jl/src/../pseudo/gbrv_pbesol/s.pbesol.UPF
     MD5 check sum: 0ccfa86ec6eb59065d10aaae963ef2a7
     Pseudo is Ultrasoft + core correction, Zval =  6.0
     Generated by new atomic code, or converted to UPF format
     Using radial grid of  907 points,  6 beta functions with: 
                l(1) =   0
                l(2) =   0
                l(3) =   1
                l(4) =   1
                l(5) =   2
                l(6) =   2
     Q(r) pseudized with  8 coefficients,  rinner =    1.300   1.300   1.300
                                                       1.300   1.300

     atomic species   valence    mass     pseudopotential
        Mg            10.00    24.31000     Mg( 1.00)
        S              6.00    32.06000     S ( 1.00)

      8 Sym. Ops. (no inversion) found


                                    s                        frac. trans.

      isym =  1     identity                                     

 cryst.   s( 1) = (     1          0          0      )
                  (     0          1          0      )
                  (     0          0          1      )

 cart.    s( 1) = (  1.0000000  0.0000000  0.0000000 )
                  (  0.0000000  1.0000000  0.0000000 )
                  (  0.0000000  0.0000000  1.0000000 )


      isym =  2     180 deg rotation - cart. axis [0,0,1]        

 cryst.   s( 2) = (    -1          0          0      )
                  (     0         -1          0      )
                  (     0          0          1      )

 cart.    s( 2) = ( -1.0000000  0.0000000  0.0000000 )
                  (  0.0000000 -1.0000000  0.0000000 )
                  (  0.0000000  0.0000000  1.0000000 )


      isym =  3      90 deg rotation - cart. axis [0,0,-1]       

 cryst.   s( 3) = (     0         -1          0      )
                  (     1          0          0      )
                  (     0          0          1      )

 cart.    s( 3) = (  0.0000000  1.0000000  0.0000000 )
                  ( -1.0000000  0.0000000  0.0000000 )
                  (  0.0000000  0.0000000  1.0000000 )


      isym =  4      90 deg rotation - cart. axis [0,0,1]        

 cryst.   s( 4) = (     0          1          0      )
                  (    -1          0          0      )
                  (     0          0          1      )

 cart.    s( 4) = (  0.0000000 -1.0000000  0.0000000 )
                  (  1.0000000  0.0000000  0.0000000 )
                  (  0.0000000  0.0000000  1.0000000 )


      isym =  5     inv. 180 deg rotation - cart. axis [0,1,0]   

 cryst.   s( 5) = (     1          0          0      )
                  (     0         -1          0      )
                  (     0          0          1      )

 cart.    s( 5) = (  1.0000000  0.0000000  0.0000000 )
                  (  0.0000000 -1.0000000  0.0000000 )
                  (  0.0000000  0.0000000  1.0000000 )


      isym =  6     inv. 180 deg rotation - cart. axis [1,0,0]   

 cryst.   s( 6) = (    -1          0          0      )
                  (     0          1          0      )
                  (     0          0          1      )

 cart.    s( 6) = ( -1.0000000  0.0000000  0.0000000 )
                  (  0.0000000  1.0000000  0.0000000 )
                  (  0.0000000  0.0000000  1.0000000 )


      isym =  7     inv. 180 deg rotation - cart. axis [1,1,0]   

 cryst.   s( 7) = (     0         -1          0      )
                  (    -1          0          0      )
                  (     0          0          1      )

 cart.    s( 7) = (  0.0000000 -1.0000000  0.0000000 )
                  ( -1.0000000  0.0000000  0.0000000 )
                  (  0.0000000  0.0000000  1.0000000 )


      isym =  8     inv. 180 deg rotation - cart. axis [1,-1,0]  

 cryst.   s( 8) = (     0          1          0      )
                  (     1          0          0      )
                  (     0          0          1      )

 cart.    s( 8) = (  0.0000000  1.0000000  0.0000000 )
                  (  1.0000000  0.0000000  0.0000000 )
                  (  0.0000000  0.0000000  1.0000000 )


   Cartesian axes

     site n.     atom                  positions (alat units)
         1           Mg  tau(   1) = (   0.0000000   0.0000000  -0.1545191  )
         2           S   tau(   2) = (   0.0000000   0.0000000   0.1545191  )

   Crystallographic axes

     site n.     atom                  positions (cryst. coord.)
         1           Mg  tau(   1) = (  0.0000000  0.0000000 -0.1081634  )
         2           S   tau(   2) = (  0.0000000  0.0000000  0.1081634  )

     number of k points=    18  Gaussian smearing, width (Ry)=  0.0100
                       cart. coord. in units 2pi/alat
        k(    1) = (   0.0000000   0.0000000   0.0000000), wk =   0.0312500
        k(    2) = (   0.0000000   0.0000000   0.1750000), wk =   0.0625000
        k(    3) = (   0.0000000   0.0000000  -0.3500000), wk =   0.0312500
        k(    4) = (   0.0000000   0.2500000   0.0000000), wk =   0.1250000
        k(    5) = (   0.0000000   0.2500000   0.1750000), wk =   0.2500000
        k(    6) = (   0.0000000   0.2500000  -0.3500000), wk =   0.1250000
        k(    7) = (   0.0000000  -0.5000000   0.0000000), wk =   0.0625000
        k(    8) = (   0.0000000  -0.5000000   0.1750000), wk =   0.1250000
        k(    9) = (   0.0000000  -0.5000000  -0.3500000), wk =   0.0625000
        k(   10) = (   0.2500000   0.2500000   0.0000000), wk =   0.1250000
        k(   11) = (   0.2500000   0.2500000   0.1750000), wk =   0.2500000
        k(   12) = (   0.2500000   0.2500000  -0.3500000), wk =   0.1250000
        k(   13) = (   0.2500000  -0.5000000   0.0000000), wk =   0.1250000
        k(   14) = (   0.2500000  -0.5000000   0.1750000), wk =   0.2500000
        k(   15) = (   0.2500000  -0.5000000  -0.3500000), wk =   0.1250000
        k(   16) = (  -0.5000000  -0.5000000   0.0000000), wk =   0.0312500
        k(   17) = (  -0.5000000  -0.5000000   0.1750000), wk =   0.0625000
        k(   18) = (  -0.5000000  -0.5000000  -0.3500000), wk =   0.0312500

                       cryst. coord.
        k(    1) = (   0.0000000   0.0000000   0.0000000), wk =   0.0312500
        k(    2) = (   0.0000000   0.0000000   0.2500000), wk =   0.0625000
        k(    3) = (   0.0000000   0.0000000  -0.5000000), wk =   0.0312500
        k(    4) = (   0.0000000   0.2500000   0.0000000), wk =   0.1250000
        k(    5) = (   0.0000000   0.2500000   0.2500000), wk =   0.2500000
        k(    6) = (   0.0000000   0.2500000  -0.5000000), wk =   0.1250000
        k(    7) = (   0.0000000  -0.5000000   0.0000000), wk =   0.0625000
        k(    8) = (   0.0000000  -0.5000000   0.2500000), wk =   0.1250000
        k(    9) = (   0.0000000  -0.5000000  -0.5000000), wk =   0.0625000
        k(   10) = (   0.2500000   0.2500000   0.0000000), wk =   0.1250000
        k(   11) = (   0.2500000   0.2500000   0.2500000), wk =   0.2500000
        k(   12) = (   0.2500000   0.2500000  -0.5000000), wk =   0.1250000
        k(   13) = (   0.2500000  -0.5000000   0.0000000), wk =   0.1250000
        k(   14) = (   0.2500000  -0.5000000   0.2500000), wk =   0.2500000
        k(   15) = (   0.2500000  -0.5000000  -0.5000000), wk =   0.1250000
        k(   16) = (  -0.5000000  -0.5000000   0.0000000), wk =   0.0312500
        k(   17) = (  -0.5000000  -0.5000000   0.2500000), wk =   0.0625000
        k(   18) = (  -0.5000000  -0.5000000  -0.5000000), wk =   0.0312500

     Dense  grid:   261761 G-vectors     FFT dimensions: (  72,  72, 108)

     Smooth grid:   159925 G-vectors     FFT dimensions: (  60,  60,  90)

     Dynamical RAM for                 wfc:       0.30 MB

     Dynamical RAM for     wfc (w. buffer):       5.79 MB

     Dynamical RAM for           str. fact:       0.67 MB

     Dynamical RAM for           local pot:       0.00 MB

     Dynamical RAM for          nlocal pot:       0.94 MB

     Dynamical RAM for                qrad:       7.53 MB

     Dynamical RAM for          rho,v,vnew:       2.07 MB

     Dynamical RAM for               rhoin:       0.69 MB

     Dynamical RAM for            rho*nmix:       5.33 MB

     Dynamical RAM for           G-vectors:       1.35 MB

     Dynamical RAM for          h,s,v(r/c):       0.01 MB

     Dynamical RAM for          <psi|beta>:       0.01 MB

     Dynamical RAM for                 psi:       1.22 MB

     Dynamical RAM for                hpsi:       1.22 MB

     Dynamical RAM for                spsi:       1.22 MB

     Dynamical RAM for      wfcinit/wfcrot:       0.61 MB

     Dynamical RAM for           addusdens:      68.57 MB

     Dynamical RAM for          addusforce:      69.75 MB

     Dynamical RAM for         addusstress:      73.23 MB

     Estimated static dynamical RAM per process >      27.14 MB

     Estimated max dynamical RAM per process >     100.37 MB

     Estimated total dynamical RAM >       1.18 GB

     Initial potential from superposition of free atoms

     starting charge   15.69974, renormalised to   16.00000

     negative rho (up, down):  2.969E-05 0.000E+00
     Starting wfcs are   12 randomized atomic wfcs

     total cpu time spent up to now is        1.0 secs

     Self-consistent Calculation

     iteration #  1     ecut=    45.00 Ry     beta= 0.30
     Davidson diagonalization with overlap
     ethr =  1.00E-02,  avg # of iterations =  4.9

     negative rho (up, down):  1.627E-04 0.000E+00

     total cpu time spent up to now is        4.1 secs

     total energy              =    -149.08680336 Ry
     Harris-Foulkes estimate   =    -149.17569929 Ry
     estimated scf accuracy    <       0.75593557 Ry

     iteration #  2     ecut=    45.00 Ry     beta= 0.30
     Davidson diagonalization with overlap
     ethr =  4.72E-03,  avg # of iterations =  1.0

     negative rho (up, down):  1.479E-02 0.000E+00

     total cpu time spent up to now is        6.0 secs

     total energy              =    -148.85068076 Ry
     Harris-Foulkes estimate   =    -149.09695813 Ry
     estimated scf accuracy    <       0.52271693 Ry

     iteration #  3     ecut=    45.00 Ry     beta= 0.30
     Davidson diagonalization with overlap
     ethr =  3.27E-03,  avg # of iterations =  1.8

     negative rho (up, down):  1.029E-02 0.000E+00

     total cpu time spent up to now is        7.9 secs

     total energy              =    -148.92665019 Ry
     Harris-Foulkes estimate   =    -148.95980591 Ry
     estimated scf accuracy    <       0.12665971 Ry

     iteration #  4     ecut=    45.00 Ry     beta= 0.30
     Davidson diagonalization with overlap
     ethr =  7.92E-04,  avg # of iterations =  2.0

     negative rho (up, down):  2.687E-02 0.000E+00

     total cpu time spent up to now is        9.8 secs

     total energy              =    -148.92141117 Ry
     Harris-Foulkes estimate   =    -148.96868753 Ry
     estimated scf accuracy    <       0.10834295 Ry

     iteration #  5     ecut=    45.00 Ry     beta= 0.30
     Davidson diagonalization with overlap
     ethr =  6.77E-04,  avg # of iterations =  1.6

     negative rho (up, down):  2.050E-02 0.000E+00

     total cpu time spent up to now is       11.9 secs

     total energy              =    -148.93548994 Ry
     Harris-Foulkes estimate   =    -148.93750413 Ry
     estimated scf accuracy    <       0.01550325 Ry

     iteration #  6     ecut=    45.00 Ry     beta= 0.30
     Davidson diagonalization with overlap
     ethr =  9.69E-05,  avg # of iterations =  5.2

     negative rho (up, down):  1.610E-02 0.000E+00

     total cpu time spent up to now is       14.1 secs

     total energy              =    -148.93688966 Ry
     Harris-Foulkes estimate   =    -148.93726062 Ry
     estimated scf accuracy    <       0.00211073 Ry

     iteration #  7     ecut=    45.00 Ry     beta= 0.30
     Davidson diagonalization with overlap
     ethr =  1.32E-05,  avg # of iterations =  3.8

     negative rho (up, down):  3.603E-03 0.000E+00

     total cpu time spent up to now is       16.7 secs

     total energy              =    -148.93623158 Ry
     Harris-Foulkes estimate   =    -148.93762782 Ry
     estimated scf accuracy    <       0.00689442 Ry

     iteration #  8     ecut=    45.00 Ry     beta= 0.30
     Davidson diagonalization with overlap
     ethr =  1.32E-05,  avg # of iterations =  3.3

     negative rho (up, down):  2.556E-03 0.000E+00

     total cpu time spent up to now is       19.1 secs

     total energy              =    -148.93742564 Ry
     Harris-Foulkes estimate   =    -148.93744160 Ry
     estimated scf accuracy    <       0.00144381 Ry

     iteration #  9     ecut=    45.00 Ry     beta= 0.30
     Davidson diagonalization with overlap
     ethr =  9.02E-06,  avg # of iterations =  1.0

     negative rho (up, down):  2.382E-04 0.000E+00

     total cpu time spent up to now is       21.8 secs

     total energy              =    -148.93725941 Ry
     Harris-Foulkes estimate   =    -148.93743160 Ry
     estimated scf accuracy    <       0.00155395 Ry

     iteration # 10     ecut=    45.00 Ry     beta= 0.30
     Davidson diagonalization with overlap
     ethr =  9.02E-06,  avg # of iterations =  4.5

     negative rho (up, down):  7.009E-05 0.000E+00

     total cpu time spent up to now is       24.3 secs

     total energy              =    -148.93722195 Ry
     Harris-Foulkes estimate   =    -148.93728540 Ry
     estimated scf accuracy    <       0.00060513 Ry

     iteration # 11     ecut=    45.00 Ry     beta= 0.30
     Davidson diagonalization with overlap
     ethr =  3.78E-06,  avg # of iterations =  1.2

     negative rho (up, down):  1.964E-05 0.000E+00

     total cpu time spent up to now is       28.2 secs

     total energy              =    -148.93721928 Ry
     Harris-Foulkes estimate   =    -148.93723936 Ry
     estimated scf accuracy    <       0.00011529 Ry

     iteration # 12     ecut=    45.00 Ry     beta= 0.30
     Davidson diagonalization with overlap
     ethr =  7.21E-07,  avg # of iterations =  1.0

     negative rho (up, down):  1.892E-05 0.000E+00

     total cpu time spent up to now is       30.2 secs

     total energy              =    -148.93723090 Ry
     Harris-Foulkes estimate   =    -148.93723014 Ry
     estimated scf accuracy    <       0.00000218 Ry

     iteration # 13     ecut=    45.00 Ry     beta= 0.30
     Davidson diagonalization with overlap
     ethr =  1.36E-08,  avg # of iterations =  3.3

     negative rho (up, down):  2.333E-05 0.000E+00

     total cpu time spent up to now is       32.4 secs

     total energy              =    -148.93723165 Ry
     Harris-Foulkes estimate   =    -148.93723163 Ry
     estimated scf accuracy    <       0.00000126 Ry

     iteration # 14     ecut=    45.00 Ry     beta= 0.30
     Davidson diagonalization with overlap
     ethr =  7.90E-09,  avg # of iterations =  2.0

     negative rho (up, down):  3.348E-05 0.000E+00

     total cpu time spent up to now is       34.5 secs

     total energy              =    -148.93723177 Ry
     Harris-Foulkes estimate   =    -148.93723176 Ry
     estimated scf accuracy    <       0.00000022 Ry

     iteration # 15     ecut=    45.00 Ry     beta= 0.30
     Davidson diagonalization with overlap
     ethr =  1.37E-09,  avg # of iterations =  2.6

     negative rho (up, down):  3.414E-05 0.000E+00

     total cpu time spent up to now is       36.5 secs

     total energy              =    -148.93723177 Ry
     Harris-Foulkes estimate   =    -148.93723179 Ry
     estimated scf accuracy    <       0.00000006 Ry

     iteration # 16     ecut=    45.00 Ry     beta= 0.30
     Davidson diagonalization with overlap
     ethr =  3.85E-10,  avg # of iterations =  1.0

     negative rho (up, down):  3.837E-05 0.000E+00

     total cpu time spent up to now is       38.6 secs

     total energy              =    -148.93723177 Ry
     Harris-Foulkes estimate   =    -148.93723178 Ry
     estimated scf accuracy    <       0.00000002 Ry

     iteration # 17     ecut=    45.00 Ry     beta= 0.30
     Davidson diagonalization with overlap
     ethr =  1.21E-10,  avg # of iterations =  2.9

     negative rho (up, down):  3.797E-05 0.000E+00

     total cpu time spent up to now is       41.3 secs

     total energy              =    -148.93723178 Ry
     Harris-Foulkes estimate   =    -148.93723178 Ry
     estimated scf accuracy    <       0.00000002 Ry

     iteration # 18     ecut=    45.00 Ry     beta= 0.30
     Davidson diagonalization with overlap
     ethr =  1.21E-10,  avg # of iterations =  1.3

     negative rho (up, down):  3.809E-05 0.000E+00

     total cpu time spent up to now is       42.5 secs

     End of self-consistent calculation

          k = 0.0000 0.0000 0.0000 ( 19923 PWs)   bands (ev):

   -80.5961 -47.5569 -47.5569 -47.5183 -14.1224  -5.8608  -4.0376  -4.0376
    -3.7286  -0.5597  -0.5597   0.2052

     occupation numbers 
     1.0000   1.0000   1.0000   1.0000   1.0000   1.0000   0.9715   0.9715
     0.0954   0.0000   0.0000   0.0000

          k = 0.0000 0.0000 0.1750 ( 19971 PWs)   bands (ev):

   -80.5961 -47.5569 -47.5569 -47.5183 -14.1224  -5.8618  -4.0375  -4.0375
    -3.7221  -0.5626  -0.5626   0.1122

     occupation numbers 
     1.0000   1.0000   1.0000   1.0000   1.0000   1.0000   0.9714   0.9714
     0.0845   0.0000   0.0000   0.0000

          k = 0.0000 0.0000-0.3500 ( 19978 PWs)   bands (ev):

   -80.5961 -47.5569 -47.5569 -47.5183 -14.1224  -5.8629  -4.0374  -4.0374
    -3.7156  -0.5654  -0.5654   0.0239

     occupation numbers 
     1.0000   1.0000   1.0000   1.0000   1.0000   1.0000   0.9714   0.9714
     0.0744   0.0000   0.0000   0.0000

          k = 0.0000 0.2500 0.0000 ( 19968 PWs)   bands (ev):

   -80.5961 -47.5569 -47.5569 -47.5183 -14.1223  -5.8570  -4.0527  -4.0363
    -3.7097  -0.8603  -0.5334   0.5130

     occupation numbers 
     1.0000   1.0000   1.0000   1.0000   1.0000   1.0000   0.9803   0.9706
     0.0662   0.0000   0.0000   0.0000

          k = 0.0000 0.2500 0.1750 ( 19980 PWs)   bands (ev):

   -80.5961 -47.5569 -47.5569 -47.5183 -14.1223  -5.8580  -4.0525  -4.0362
    -3.7036  -0.8632  -0.5361   0.2787

     occupation numbers 
     1.0000   1.0000   1.0000   1.0000   1.0000   1.0000   0.9802   0.9706
     0.0584   0.0000   0.0000   0.0000

          k = 0.0000 0.2500-0.3500 ( 19962 PWs)   bands (ev):

   -80.5961 -47.5569 -47.5569 -47.5183 -14.1223  -5.8590  -4.0524  -4.0362
    -3.6974  -0.8661  -0.5389   0.1686

     occupation numbers 
     1.0000   1.0000   1.0000   1.0000   1.0000   1.0000   0.9801   0.9705
     0.0513   0.0000   0.0000   0.0000

          k = 0.0000-0.5000 0.0000 ( 20022 PWs)   bands (ev):

   -80.5961 -47.5569 -47.5569 -47.5183 -14.1223  -5.8531  -4.0670  -4.0350
    -3.6908  -1.0614  -0.5055   0.6807

     occupation numbers 
     1.0000   1.0000   1.0000   1.0000   1.0000   1.0000   0.9864   0.9697
     0.0444   0.0000   0.0000   0.0000

          k = 0.0000-0.5000 0.1750 ( 19978 PWs)   bands (ev):

   -80.5961 -47.5569 -47.5569 -47.5183 -14.1223  -5.8541  -4.0668  -4.0350
    -3.6849  -1.0651  -0.5081   0.5038

     occupation numbers 
     1.0000   1.0000   1.0000   1.0000   1.0000   1.0000   0.9864   0.9697
     0.0390   0.0000   0.0000   0.0000

          k = 0.0000-0.5000-0.3500 ( 19976 PWs)   bands (ev):

   -80.5961 -47.5569 -47.5569 -47.5183 -14.1223  -5.8551  -4.0667  -4.0349
    -3.6790  -1.0688  -0.5108   0.3912

     occupation numbers 
     1.0000   1.0000   1.0000   1.0000   1.0000   1.0000   0.9863   0.9696
     0.0341   0.0000   0.0000   0.0000

          k = 0.2500 0.2500 0.0000 ( 19983 PWs)   bands (ev):

   -80.5961 -47.5569 -47.5569 -47.5183 -14.1223  -5.8533  -4.0517  -4.0503
    -3.6919  -0.8433  -0.7790   0.6255

     occupation numbers 
     1.0000   1.0000   1.0000   1.0000   1.0000   1.0000   0.9798   0.9791
     0.0455   0.0000   0.0000   0.0000

          k = 0.2500 0.2500 0.1750 ( 19985 PWs)   bands (ev):

   -80.5961 -47.5569 -47.5569 -47.5183 -14.1223  -5.8543  -4.0515  -4.0502
    -3.6860  -0.8461  -0.7824   0.4223

     occupation numbers 
     1.0000   1.0000   1.0000   1.0000   1.0000   1.0000   0.9797   0.9790
     0.0399   0.0000   0.0000   0.0000

          k = 0.2500 0.2500-0.3500 ( 19980 PWs)   bands (ev):

   -80.5961 -47.5569 -47.5569 -47.5183 -14.1223  -5.8553  -4.0513  -4.0500
    -3.6801  -0.8490  -0.7858   0.3083

     occupation numbers 
     1.0000   1.0000   1.0000   1.0000   1.0000   1.0000   0.9796   0.9790
     0.0349   0.0000   0.0000   0.0000

          k = 0.2500-0.5000 0.0000 ( 20020 PWs)   bands (ev):

   -80.5961 -47.5569 -47.5569 -47.5183 -14.1222  -5.8496  -4.0650  -4.0493
    -3.6739  -1.0071  -0.7590   0.7973

     occupation numbers 
     1.0000   1.0000   1.0000   1.0000   1.0000   1.0000   0.9857   0.9786
     0.0302   0.0000   0.0000   0.0000

          k = 0.2500-0.5000 0.1750 ( 19978 PWs)   bands (ev):

   -80.5961 -47.5569 -47.5569 -47.5183 -14.1222  -5.8505  -4.0648  -4.0492
    -3.6682  -1.0109  -0.7623   0.6317

     occupation numbers 
     1.0000   1.0000   1.0000   1.0000   1.0000   1.0000   0.9856   0.9785
     0.0264   0.0000   0.0000   0.0000

          k = 0.2500-0.5000-0.3500 ( 19992 PWs)   bands (ev):

   -80.5961 -47.5569 -47.5569 -47.5183 -14.1222  -5.8515  -4.0647  -4.0490
    -3.6626  -1.0146  -0.7656   0.5190

     occupation numbers 
     1.0000   1.0000   1.0000   1.0000   1.0000   1.0000   0.9855   0.9784
     0.0230   0.0000   0.0000   0.0000

          k =-0.5000-0.5000 0.0000 ( 20028 PWs)   bands (ev):

   -80.5961 -47.5569 -47.5569 -47.5183 -14.1221  -5.8460  -4.0630  -4.0630
    -3.6568  -0.9446  -0.9446   0.9412

     occupation numbers 
     1.0000   1.0000   1.0000   1.0000   1.0000   1.0000   0.9849   0.9849
     0.0200   0.0000   0.0000   0.0000

          k =-0.5000-0.5000 0.1750 ( 19944 PWs)   bands (ev):

   -80.5961 -47.5569 -47.5569 -47.5183 -14.1221  -5.8469  -4.0628  -4.0628
    -3.6514  -0.9485  -0.9485   0.8011

     occupation numbers 
     1.0000   1.0000   1.0000   1.0000   1.0000   1.0000   0.9848   0.9848
     0.0174   0.0000   0.0000   0.0000

          k =-0.5000-0.5000-0.3500 ( 20000 PWs)   bands (ev):

   -80.5961 -47.5569 -47.5569 -47.5183 -14.1221  -5.8479  -4.0627  -4.0627
    -3.6460  -0.9524  -0.9524   0.6944

     occupation numbers 
     1.0000   1.0000   1.0000   1.0000   1.0000   1.0000   0.9848   0.9848
     0.0151   0.0000   0.0000   0.0000

     the Fermi energy is    -3.8545 ev

!    total energy              =    -148.93723181 Ry
     Harris-Foulkes estimate   =    -148.93723179 Ry
     estimated scf accuracy    <          5.2E-10 Ry

     The total energy is the sum of the following terms:

     one-electron contribution =    -206.80050251 Ry
     hartree contribution      =      98.64929844 Ry
     xc contribution           =     -24.63999976 Ry
     ewald contribution        =     -16.14333349 Ry
     smearing contrib. (-TS)   =      -0.00269450 Ry

     convergence has been achieved in  18 iterations

     negative rho (up, down):  3.809E-05 0.000E+00

     Forces acting on atoms (cartesian axes, Ry/au):

     atom    1 type  1   force =     0.00000000    0.00000000    0.05618489
     atom    2 type  2   force =     0.00000000    0.00000000   -0.05618489
     The non-local contrib.  to forces
     atom    1 type  1   force =     0.00000000    0.00000000   -0.90418152
     atom    2 type  2   force =     0.00000000    0.00000000   -0.18031682
     The ionic contribution  to forces
     atom    1 type  1   force =     0.00000000   -0.00000000   -6.31644455
     atom    2 type  2   force =    -0.00000000    0.00000000    6.31644455
     The local contribution  to forces
     atom    1 type  1   force =     0.00000000    0.00000000    7.27677333
     atom    2 type  2   force =    -0.00000000    0.00000000   -6.20032818
     The core correction contribution to forces
     atom    1 type  1   force =     0.00000000    0.00000000    0.00000000
     atom    2 type  2   force =     0.00000000    0.00000000    0.00802024
     The Hubbard contrib.    to forces
     atom    1 type  1   force =     0.00000000    0.00000000    0.00000000
     atom    2 type  2   force =     0.00000000    0.00000000    0.00000000
     The SCF correction term to forces
     atom    1 type  1   force =     0.00000000    0.00000000    0.00003886
     atom    2 type  2   force =     0.00000000    0.00000000   -0.00000347

     Total force =     0.079457     Total SCF correction =     0.000039


     Computing stress (Cartesian axis) and pressure


     negative rho (up, down):  3.809E-05 0.000E+00
          total   stress  (Ry/bohr**3)                   (kbar)     P=       -3.09
   0.00000337   0.00000000   0.00000000            0.50        0.00        0.00
   0.00000000   0.00000337   0.00000000            0.00        0.50        0.00
   0.00000000   0.00000000  -0.00006986            0.00        0.00      -10.28

     kinetic stress (kbar)    596.85      0.00      0.00
                                0.00    596.85      0.00
                                0.00      0.00    553.21

     local   stress (kbar)  -1450.20     -0.00      0.00
                               -0.00  -1450.20      0.00
                                0.00      0.00  -2154.39

     nonloc. stress (kbar)    329.02      0.00      0.00
                                0.00    329.02      0.00
                                0.00      0.00    326.81

     hartree stress (kbar)   1163.20      0.00     -0.00
                                0.00   1163.20     -0.00
                               -0.00     -0.00   1375.59

     exc-cor stress (kbar)   -114.53      0.00      0.00
                                0.00   -114.53      0.00
                                0.00      0.00   -113.98

     corecor stress (kbar)   -146.72      0.00     -0.00
                                0.00   -146.72     -0.00
                               -0.00     -0.00   -145.97

     ewald   stress (kbar)   -377.13      0.00      0.00
                                0.00   -377.13      0.00
                                0.00      0.00    148.44

     hubbard stress (kbar)      0.00      0.00      0.00
                                0.00      0.00      0.00
                                0.00      0.00      0.00

     london  stress (kbar)      0.00      0.00      0.00
                                0.00      0.00      0.00
                                0.00      0.00      0.00

     DFT-D3  stress (kbar)      0.00      0.00      0.00
                                0.00      0.00      0.00
                                0.00      0.00      0.00

     XDM     stress (kbar)      0.00      0.00      0.00
                                0.00      0.00      0.00
                                0.00      0.00      0.00

     dft-nl  stress (kbar)      0.00      0.00      0.00
                                0.00      0.00      0.00
                                0.00      0.00      0.00

     TS-vdW  stress (kbar)      0.00      0.00      0.00
                                0.00      0.00      0.00
                                0.00      0.00      0.00



     Writing output data file dimer.in_vnscf_coords_7/qe.save/
 
     init_run     :      0.85s CPU      0.93s WALL (       1 calls)
     electrons    :     38.13s CPU     41.92s WALL (       1 calls)
     forces       :      0.42s CPU      0.45s WALL (       1 calls)
     stress       :      1.26s CPU      1.34s WALL (       1 calls)

     Called by init_run:
     wfcinit      :      0.27s CPU      0.30s WALL (       1 calls)
     wfcinit:atom :      0.01s CPU      0.01s WALL (      18 calls)
     wfcinit:wfcr :      0.24s CPU      0.27s WALL (      18 calls)
     potinit      :      0.14s CPU      0.14s WALL (       1 calls)
     hinit0       :      0.24s CPU      0.25s WALL (       1 calls)

     Called by electrons:
     c_bands      :     13.19s CPU     14.02s WALL (      18 calls)
     sum_band     :      5.56s CPU      6.28s WALL (      18 calls)
     v_of_rho     :      0.56s CPU      0.58s WALL (      19 calls)
     v_h          :      0.03s CPU      0.04s WALL (      19 calls)
     v_xc         :      0.58s CPU      0.60s WALL (      21 calls)
     newd         :      2.52s CPU      3.06s WALL (      19 calls)
     mix_rho      :     16.39s CPU     17.62s WALL (      18 calls)

     Called by c_bands:
     init_us_2    :      0.45s CPU      0.47s WALL (     702 calls)
     cegterg      :     11.24s CPU     12.06s WALL (     324 calls)

     Called by sum_band:
     sum_band:bec :      0.00s CPU      0.00s WALL (     324 calls)
     addusdens    :      3.27s CPU      3.81s WALL (      18 calls)

     Called by *egterg:
     h_psi        :      8.50s CPU      9.29s WALL (    1142 calls)
     s_psi        :      0.21s CPU      0.21s WALL (    1142 calls)
     g_psi        :      0.05s CPU      0.05s WALL (     800 calls)
     cdiaghg      :      1.43s CPU      1.44s WALL (    1124 calls)
     cegterg:over :      0.49s CPU      0.51s WALL (     800 calls)
     cegterg:upda :      0.40s CPU      0.41s WALL (     800 calls)
     cegterg:last :      0.15s CPU      0.15s WALL (     324 calls)
     cdiaghg:chol :      0.12s CPU      0.12s WALL (    1124 calls)
     cdiaghg:inve :      0.06s CPU      0.06s WALL (    1124 calls)
     cdiaghg:para :      0.12s CPU      0.12s WALL (    2248 calls)

     Called by h_psi:
     h_psi:calbec :      0.29s CPU      0.31s WALL (    1142 calls)
     vloc_psi     :      7.92s CPU      8.68s WALL (    1142 calls)
     add_vuspsi   :      0.23s CPU      0.24s WALL (    1142 calls)

     General routines
     calbec       :      0.41s CPU      0.44s WALL (    1556 calls)
     fft          :      0.41s CPU      0.46s WALL (     270 calls)
     ffts         :      9.14s CPU     10.15s WALL (   11054 calls)
     fftw         :      8.72s CPU      9.55s WALL (   22098 calls)
     interpolate  :      0.05s CPU      0.05s WALL (      19 calls)
 
     Parallel routines
     fft_scatt_xy :      1.65s CPU      1.83s WALL (   33422 calls)
     fft_scatt_yz :      8.18s CPU      9.13s WALL (   33422 calls)
 
     PWSCF        :     40.83s CPU     48.34s WALL

 
   This run was terminated on:  16:22: 7  25Jun2021            

=------------------------------------------------------------------------------=
   JOB DONE.
=------------------------------------------------------------------------------=
