
     Program PWSCF v.6.5 starts on 25Jun2021 at 16:22:41 

     This program is part of the open-source Quantum ESPRESSO suite
     for quantum simulation of materials; please cite
         "P. Giannozzi et al., J. Phys.:Condens. Matter 21 395502 (2009);
         "P. Giannozzi et al., J. Phys.:Condens. Matter 29 465901 (2017);
          URL http://www.quantum-espresso.org", 
     in publications or presentations arising from this work. More details at
     http://www.quantum-espresso.org/quote

     Parallel version (MPI), running on    12 processors

     MPI processes distributed on     1 nodes
     R & G space division:  proc/nbgrp/npool/nimage =      12
     Reading input from znse.in_vnscf_shear_1/qe.in
Warning: card &IONS ignored
Warning: card   ION_DYNAMICS='BFGS', ignored
Warning: card / ignored
Warning: card &CELL ignored
Warning: card  CELL_DYNAMICS = 'BFGS' ignored
Warning: card  CELL_DOFREE = 'ALL' ignored
Warning: card  CELL_FACTOR = 1.0 ignored
Warning: card / ignored
     Message from routine read_cards :
     DEPRECATED: no units specified in CELL_PARAMETERS card

     Current dimensions of program PWSCF are:
     Max number of different atomic species (ntypx) = 10
     Max number of k-points (npk) =  40000
     Max angular momentum in pseudopotentials (lmaxx) =  3
     Message from routine volume:
     axis vectors are left-handed
               file mg.pbesol.UPF: wavefunction(s)  3P renormalized

     Subspace diagonalization in iterative solution of the eigenvalue problem:
     one sub-group per band group will be used
     scalapack distributed-memory algorithm (size of sub-group:  3*  3 procs)

     Message from routine setup:
     using ibrav=0 with symmetry is DISCOURAGED, use correct ibrav instead
 
     Parallelization info
     --------------------
     sticks:   dense  smooth     PW     G-vecs:    dense   smooth      PW
     Min          81      59     18                 1686     1026     185
     Max          82      60     19                 1689     1028     187
     Sum         983     711    227                20255    12325    2233
 


     bravais-lattice index     =            0
     lattice parameter (alat)  =       7.6268  a.u.
     unit-cell volume          =     304.4405 (a.u.)^3
     number of atoms/cell      =            2
     number of atomic types    =            2
     number of electrons       =        16.00
     number of Kohn-Sham states=           12
     kinetic-energy cutoff     =      45.0000  Ry
     charge density cutoff     =     250.0000  Ry
     convergence threshold     =      1.0E-09
     mixing beta               =       0.3000
     number of iterations used =            8  local-TF  mixing
     Exchange-correlation= SLA  PW   PSX  PSC
                           (   1   4  10   8   0   0   0)
     A smooth kinetic-energy cutoff is imposed at      44.5000 Ry
     height of the smooth step-function =             800.0000 Ry
     width of the smooth step-function  =               1.0000 Ry


     celldm(1)=   7.626788  celldm(2)=   0.000000  celldm(3)=   0.000000
     celldm(4)=   0.000000  celldm(5)=   0.000000  celldm(6)=   0.000000

     crystal axes: (cart. coord. in units of alat)
               a(1) = (   0.707107   0.707107   0.000000 )  
               a(2) = (   0.700106   0.007001   0.700106 )  
               a(3) = (   0.007001   0.700106   0.700106 )  

     reciprocal axes: (cart. coord. in units 2 pi/alat)
               b(1) = (  0.707107  0.707107 -0.714178 )  
               b(2) = (  0.721392 -0.721392  0.714178 )  
               b(3) = ( -0.721392  0.721392  0.714178 )  


     PseudoPot. # 1 for Mg read from file:
     /home/kfg/codes/ThreeBodyTB.jl/src/../pseudo/gbrv_pbesol/mg.pbesol.UPF
     MD5 check sum: cbba17e5274afd115179030b10be074e
     Pseudo is Ultrasoft, Zval = 10.0
     Generated by new atomic code, or converted to UPF format
     Using radial grid of  821 points,  7 beta functions with: 
                l(1) =   0
                l(2) =   0
                l(3) =   0
                l(4) =   1
                l(5) =   1
                l(6) =   2
                l(7) =   2
     Q(r) pseudized with  8 coefficients,  rinner =    1.200   1.200   1.200
                                                       1.200   1.200

     PseudoPot. # 2 for S  read from file:
     /home/kfg/codes/ThreeBodyTB.jl/src/../pseudo/gbrv_pbesol/s.pbesol.UPF
     MD5 check sum: 0ccfa86ec6eb59065d10aaae963ef2a7
     Pseudo is Ultrasoft + core correction, Zval =  6.0
     Generated by new atomic code, or converted to UPF format
     Using radial grid of  907 points,  6 beta functions with: 
                l(1) =   0
                l(2) =   0
                l(3) =   1
                l(4) =   1
                l(5) =   2
                l(6) =   2
     Q(r) pseudized with  8 coefficients,  rinner =    1.300   1.300   1.300
                                                       1.300   1.300

     atomic species   valence    mass     pseudopotential
        Mg            10.00    24.31000     Mg( 1.00)
        S              6.00    32.06000     S ( 1.00)

      4 Sym. Ops. (no inversion) found


                                    s                        frac. trans.

      isym =  1     identity                                     

 cryst.   s( 1) = (     1          0          0      )
                  (     0          1          0      )
                  (     0          0          1      )

 cart.    s( 1) = (  1.0000000 -0.0000000  0.0000000 )
                  (  0.0000000  1.0000000  0.0000000 )
                  (  0.0000000  0.0000000  1.0000000 )


      isym =  2     180 deg rotation - cart. axis [0,0,1]        

 cryst.   s( 2) = (    -1          0          0      )
                  (    -1          0          1      )
                  (    -1          1          0      )

 cart.    s( 2) = ( -1.0000000  0.0000000  0.0000000 )
                  (  0.0000000 -1.0000000  0.0000000 )
                  (  0.0000000  0.0000000  1.0000000 )


      isym =  3     inv. 180 deg rotation - cart. axis [1,1,0]   

 cryst.   s( 3) = (    -1          0          0      )
                  (    -1          1          0      )
                  (    -1          0          1      )

 cart.    s( 3) = (  0.0000000 -1.0000000  0.0000000 )
                  ( -1.0000000  0.0000000  0.0000000 )
                  (  0.0000000  0.0000000  1.0000000 )


      isym =  4     inv. 180 deg rotation - cart. axis [1,-1,0]  

 cryst.   s( 4) = (     1          0          0      )
                  (     0          0          1      )
                  (     0          1          0      )

 cart.    s( 4) = ( -0.0000000  1.0000000  0.0000000 )
                  (  1.0000000  0.0000000  0.0000000 )
                  (  0.0000000  0.0000000  1.0000000 )


   Cartesian axes

     site n.     atom                  positions (alat units)
         1           Mg  tau(   1) = (   0.0000000   0.0000000   0.0000000  )
         2           S   tau(   2) = (   0.3535534   0.3535534   0.3500529  )

   Crystallographic axes

     site n.     atom                  positions (cryst. coord.)
         1           Mg  tau(   1) = (  0.0000000  0.0000000  0.0000000  )
         2           S   tau(   2) = (  0.2500000  0.2500000  0.2500000  )

     number of k points=   171  Gaussian smearing, width (Ry)=  0.0100
                       cart. coord. in units 2pi/alat
        k(    1) = (   0.0000000   0.0000000   0.0000000), wk =   0.0020000
        k(    2) = (  -0.0721392   0.0721392   0.0714178), wk =   0.0080000
        k(    3) = (  -0.1442784   0.1442784   0.1428356), wk =   0.0080000
        k(    4) = (  -0.2164175   0.2164175   0.2142534), wk =   0.0080000
        k(    5) = (  -0.2885567   0.2885567   0.2856711), wk =   0.0080000
        k(    6) = (   0.3606959  -0.3606959  -0.3570889), wk =   0.0040000
        k(    7) = (   0.0000000   0.0000000   0.1428356), wk =   0.0040000
        k(    8) = (  -0.0721392   0.0721392   0.2142534), wk =   0.0080000
        k(    9) = (  -0.1442784   0.1442784   0.2856711), wk =   0.0080000
        k(   10) = (  -0.2164175   0.2164175   0.3570889), wk =   0.0080000
        k(   11) = (   0.4328351  -0.4328351  -0.2856711), wk =   0.0080000
        k(   12) = (   0.3606959  -0.3606959  -0.2142534), wk =   0.0080000
        k(   13) = (   0.2885567  -0.2885567  -0.1428356), wk =   0.0080000
        k(   14) = (   0.2164175  -0.2164175  -0.0714178), wk =   0.0080000
        k(   15) = (   0.1442784  -0.1442784   0.0000000), wk =   0.0040000
        k(   16) = (   0.0000000   0.0000000   0.2856711), wk =   0.0040000
        k(   17) = (  -0.0721392   0.0721392   0.3570889), wk =   0.0080000
        k(   18) = (  -0.1442784   0.1442784   0.4285067), wk =   0.0080000
        k(   19) = (   0.5049742  -0.5049742  -0.2142534), wk =   0.0080000
        k(   20) = (   0.4328351  -0.4328351  -0.1428356), wk =   0.0080000
        k(   21) = (   0.3606959  -0.3606959  -0.0714178), wk =   0.0080000
        k(   22) = (   0.2885567  -0.2885567   0.0000000), wk =   0.0040000
        k(   23) = (   0.0000000   0.0000000   0.4285067), wk =   0.0040000
        k(   24) = (  -0.0721392   0.0721392   0.4999245), wk =   0.0080000
        k(   25) = (   0.5771134  -0.5771134  -0.1428356), wk =   0.0080000
        k(   26) = (   0.5049742  -0.5049742  -0.0714178), wk =   0.0080000
        k(   27) = (   0.4328351  -0.4328351  -0.0000000), wk =   0.0040000
        k(   28) = (   0.0000000   0.0000000   0.5713423), wk =   0.0040000
        k(   29) = (   0.6492526  -0.6492526  -0.0714178), wk =   0.0080000
        k(   30) = (   0.5771134  -0.5771134   0.0000000), wk =   0.0040000
        k(   31) = (   0.0000000   0.0000000  -0.7141778), wk =   0.0020000
        k(   32) = (   0.0707107   0.0707107  -0.0714178), wk =   0.0080000
        k(   33) = (  -0.0014285   0.1428499  -0.0000000), wk =   0.0080000
        k(   34) = (  -0.0735677   0.2149890   0.0714178), wk =   0.0160000
        k(   35) = (  -0.1457069   0.2871282   0.1428356), wk =   0.0160000
        k(   36) = (  -0.2178460   0.3592674   0.2142534), wk =   0.0160000
        k(   37) = (   0.4314066  -0.2899852  -0.4285067), wk =   0.0160000
        k(   38) = (   0.3592674  -0.2178460  -0.3570889), wk =   0.0160000
        k(   39) = (   0.2871282  -0.1457069  -0.2856711), wk =   0.0160000
        k(   40) = (   0.2149890  -0.0735677  -0.2142534), wk =   0.0160000
        k(   41) = (   0.1428499  -0.0014285  -0.1428356), wk =   0.0160000
        k(   42) = (   0.0707107   0.0707107   0.2142534), wk =   0.0080000
        k(   43) = (  -0.0014285   0.1428499   0.2856711), wk =   0.0160000
        k(   44) = (  -0.0735677   0.2149890   0.3570889), wk =   0.0160000
        k(   45) = (   0.5756849  -0.4342636  -0.2856711), wk =   0.0160000
        k(   46) = (   0.5035457  -0.3621244  -0.2142534), wk =   0.0160000
        k(   47) = (   0.4314066  -0.2899852  -0.1428356), wk =   0.0160000
        k(   48) = (   0.3592674  -0.2178460  -0.0714178), wk =   0.0160000
        k(   49) = (   0.2871282  -0.1457069   0.0000000), wk =   0.0080000
        k(   50) = (   0.0707107   0.0707107   0.3570889), wk =   0.0080000
        k(   51) = (  -0.0014285   0.1428499   0.4285067), wk =   0.0160000
        k(   52) = (   0.6478241  -0.5064027  -0.2142534), wk =   0.0160000
        k(   53) = (   0.5756849  -0.4342636  -0.1428356), wk =   0.0160000
        k(   54) = (   0.5035457  -0.3621244  -0.0714178), wk =   0.0160000
        k(   55) = (   0.4314066  -0.2899852   0.0000000), wk =   0.0080000
        k(   56) = (   0.0707107   0.0707107   0.4999245), wk =   0.0080000
        k(   57) = (   0.7199633  -0.5785419  -0.1428356), wk =   0.0160000
        k(   58) = (   0.6478241  -0.5064027  -0.0714178), wk =   0.0160000
        k(   59) = (   0.5756849  -0.4342636  -0.0000000), wk =   0.0080000
        k(   60) = (   0.0707107   0.0707107  -0.7855956), wk =   0.0080000
        k(   61) = (  -0.0014285   0.1428499  -0.7141778), wk =   0.0080000
        k(   62) = (   0.1414214   0.1414214  -0.1428356), wk =   0.0080000
        k(   63) = (   0.0692822   0.2135605  -0.0714178), wk =   0.0160000
        k(   64) = (  -0.0028570   0.2856997  -0.0000000), wk =   0.0080000
        k(   65) = (  -0.0749962   0.3578389   0.0714178), wk =   0.0160000
        k(   66) = (  -0.1471354   0.4299781   0.1428356), wk =   0.0160000
        k(   67) = (   0.5021172  -0.2192745  -0.4999245), wk =   0.0160000
        k(   68) = (   0.4299781  -0.1471354  -0.4285067), wk =   0.0160000
        k(   69) = (   0.3578389  -0.0749962  -0.3570889), wk =   0.0160000
        k(   70) = (   0.2856997  -0.0028570  -0.2856711), wk =   0.0160000
        k(   71) = (   0.2135605   0.0692822  -0.2142534), wk =   0.0160000
        k(   72) = (   0.1414214   0.1414214  -0.0000000), wk =   0.0040000
        k(   73) = (  -0.0028570   0.2856997   0.1428356), wk =   0.0160000
        k(   74) = (  -0.0749962   0.3578389   0.2142534), wk =   0.0160000
        k(   75) = (   0.5742564  -0.2914137  -0.4285067), wk =   0.0160000
        k(   76) = (   0.5021172  -0.2192745  -0.3570889), wk =   0.0080000
        k(   77) = (   0.1414214   0.1414214   0.2856711), wk =   0.0080000
        k(   78) = (   0.0692822   0.2135605   0.3570889), wk =   0.0160000
        k(   79) = (   0.7185348  -0.4356921  -0.2856711), wk =   0.0160000
        k(   80) = (   0.6463956  -0.3635529  -0.2142534), wk =   0.0160000
        k(   81) = (   0.5742564  -0.2914137  -0.1428356), wk =   0.0160000
        k(   82) = (   0.5021172  -0.2192745  -0.0714178), wk =   0.0160000
        k(   83) = (   0.4299781  -0.1471354  -0.0000000), wk =   0.0080000
        k(   84) = (   0.1414214   0.1414214   0.4285067), wk =   0.0080000
        k(   85) = (   0.7906739  -0.5078312  -0.2142534), wk =   0.0160000
        k(   86) = (   0.7185348  -0.4356921  -0.1428356), wk =   0.0160000
        k(   87) = (   0.6463956  -0.3635529  -0.0714178), wk =   0.0160000
        k(   88) = (   0.5742564  -0.2914137   0.0000000), wk =   0.0080000
        k(   89) = (   0.1414214   0.1414214  -0.8570134), wk =   0.0080000
        k(   90) = (   0.0692822   0.2135605  -0.7855956), wk =   0.0160000
        k(   91) = (  -0.0028570   0.2856997  -0.7141778), wk =   0.0080000
        k(   92) = (   0.1414214   0.1414214  -0.7141778), wk =   0.0040000
        k(   93) = (   0.2121320   0.2121320  -0.2142534), wk =   0.0080000
        k(   94) = (   0.1399929   0.2842712  -0.1428356), wk =   0.0160000
        k(   95) = (   0.0678537   0.3564104  -0.0714178), wk =   0.0160000
        k(   96) = (  -0.0042855   0.4285496  -0.0000000), wk =   0.0080000
        k(   97) = (  -0.0764247   0.5006887   0.0714178), wk =   0.0160000
        k(   98) = (   0.5728279  -0.1485638  -0.5713423), wk =   0.0160000
        k(   99) = (   0.5006887  -0.0764247  -0.4999245), wk =   0.0160000
        k(  100) = (   0.4285496  -0.0042855  -0.4285067), wk =   0.0160000
        k(  101) = (   0.3564104   0.0678537  -0.3570889), wk =   0.0160000
        k(  102) = (   0.2842712   0.1399929  -0.2856711), wk =   0.0160000
        k(  103) = (   0.2121320   0.2121320  -0.0714178), wk =   0.0080000
        k(  104) = (   0.1399929   0.2842712   0.0000000), wk =   0.0080000
        k(  105) = (  -0.0042855   0.4285496   0.1428356), wk =   0.0160000
        k(  106) = (   0.6449671  -0.2207030  -0.4999245), wk =   0.0160000
        k(  107) = (   0.5728279  -0.1485638  -0.4285067), wk =   0.0160000
        k(  108) = (   0.5006887  -0.0764247  -0.3570889), wk =   0.0160000
        k(  109) = (   0.4285496  -0.0042855  -0.2856711), wk =   0.0160000
        k(  110) = (   0.3564104   0.0678537  -0.2142534), wk =   0.0160000
        k(  111) = (   0.2121320   0.2121320   0.3570889), wk =   0.0080000
        k(  112) = (   0.8613846  -0.4371206  -0.2856711), wk =   0.0160000
        k(  113) = (   0.7892454  -0.3649814  -0.2142534), wk =   0.0160000
        k(  114) = (   0.7171063  -0.2928422  -0.1428356), wk =   0.0160000
        k(  115) = (   0.6449671  -0.2207030  -0.0714178), wk =   0.0160000
        k(  116) = (   0.5728279  -0.1485638   0.0000000), wk =   0.0080000
        k(  117) = (   0.2121320   0.2121320  -0.9284312), wk =   0.0080000
        k(  118) = (   0.1399929   0.2842712  -0.8570134), wk =   0.0160000
        k(  119) = (   0.0678537   0.3564104  -0.7855956), wk =   0.0160000
        k(  120) = (  -0.0042855   0.4285496  -0.7141778), wk =   0.0080000
        k(  121) = (   0.2121320   0.2121320  -0.7855956), wk =   0.0080000
        k(  122) = (   0.1399929   0.2842712  -0.7141778), wk =   0.0080000
        k(  123) = (   0.2828427   0.2828427  -0.2856711), wk =   0.0080000
        k(  124) = (   0.2107035   0.3549819  -0.2142534), wk =   0.0160000
        k(  125) = (   0.1385644   0.4271211  -0.1428356), wk =   0.0160000
        k(  126) = (   0.0664252   0.4992602  -0.0714178), wk =   0.0160000
        k(  127) = (  -0.0057140   0.5713994  -0.0000000), wk =   0.0080000
        k(  128) = (   0.6435386  -0.0778532  -0.6427601), wk =   0.0160000
        k(  129) = (   0.5713994  -0.0057140  -0.5713423), wk =   0.0160000
        k(  130) = (   0.4992602   0.0664252  -0.4999245), wk =   0.0160000
        k(  131) = (   0.4271211   0.1385644  -0.4285067), wk =   0.0160000
        k(  132) = (   0.3549819   0.2107035  -0.3570889), wk =   0.0160000
        k(  133) = (   0.2828427   0.2828427  -0.1428356), wk =   0.0080000
        k(  134) = (   0.2107035   0.3549819  -0.0714178), wk =   0.0160000
        k(  135) = (   0.1385644   0.4271211  -0.0000000), wk =   0.0080000
        k(  136) = (   0.7156778  -0.1499923  -0.5713423), wk =   0.0160000
        k(  137) = (   0.6435386  -0.0778532  -0.4999245), wk =   0.0160000
        k(  138) = (   0.5713994  -0.0057140  -0.4285067), wk =   0.0160000
        k(  139) = (   0.4992602   0.0664252  -0.3570889), wk =   0.0160000
        k(  140) = (   0.4271211   0.1385644  -0.2856711), wk =   0.0160000
        k(  141) = (   0.2828427   0.2828427  -0.0000000), wk =   0.0040000
        k(  142) = (   0.7878169  -0.2221315  -0.4999245), wk =   0.0160000
        k(  143) = (   0.7156778  -0.1499923  -0.4285067), wk =   0.0160000
        k(  144) = (   0.6435386  -0.0778532  -0.3570889), wk =   0.0080000
        k(  145) = (   0.2828427   0.2828427  -0.9998490), wk =   0.0080000
        k(  146) = (   0.2107035   0.3549819  -0.9284312), wk =   0.0160000
        k(  147) = (   0.1385644   0.4271211  -0.8570134), wk =   0.0160000
        k(  148) = (   0.0664252   0.4992602  -0.7855956), wk =   0.0160000
        k(  149) = (  -0.0057140   0.5713994  -0.7141778), wk =   0.0080000
        k(  150) = (   0.2828427   0.2828427  -0.8570134), wk =   0.0080000
        k(  151) = (   0.2107035   0.3549819  -0.7855956), wk =   0.0160000
        k(  152) = (   0.1385644   0.4271211  -0.7141778), wk =   0.0080000
        k(  153) = (   0.2828427   0.2828427  -0.7141778), wk =   0.0040000
        k(  154) = (  -0.3535534  -0.3535534   0.3570889), wk =   0.0040000
        k(  155) = (  -0.4256926  -0.2814142   0.4285067), wk =   0.0160000
        k(  156) = (  -0.4978317  -0.2092750   0.4999245), wk =   0.0160000
        k(  157) = (  -0.5699709  -0.1371359   0.5713423), wk =   0.0160000
        k(  158) = (  -0.6421101  -0.0649967   0.6427601), wk =   0.0160000
        k(  159) = (   0.0071425  -0.7142493   0.0000000), wk =   0.0040000
        k(  160) = (  -0.3535534  -0.3535534   0.4999245), wk =   0.0080000
        k(  161) = (  -0.4256926  -0.2814142   0.5713423), wk =   0.0160000
        k(  162) = (  -0.4978317  -0.2092750   0.6427601), wk =   0.0160000
        k(  163) = (  -0.5699709  -0.1371359   0.7141778), wk =   0.0080000
        k(  164) = (   0.0071425  -0.7142493   0.1428356), wk =   0.0080000
        k(  165) = (  -0.0649967  -0.6421101   0.2142534), wk =   0.0160000
        k(  166) = (  -0.1371359  -0.5699709   0.2856711), wk =   0.0160000
        k(  167) = (  -0.2092750  -0.4978317   0.3570889), wk =   0.0080000
        k(  168) = (  -0.3535534  -0.3535534   0.6427601), wk =   0.0080000
        k(  169) = (  -0.4256926  -0.2814142   0.7141778), wk =   0.0080000
        k(  170) = (   0.0071425  -0.7142493   0.2856711), wk =   0.0080000
        k(  171) = (  -0.0649967  -0.6421101   0.3570889), wk =   0.0080000

                       cryst. coord.
        k(    1) = (   0.0000000   0.0000000   0.0000000), wk =   0.0020000
        k(    2) = (   0.0000000   0.0000000   0.1000000), wk =   0.0080000
        k(    3) = (   0.0000000   0.0000000   0.2000000), wk =   0.0080000
        k(    4) = (   0.0000000   0.0000000   0.3000000), wk =   0.0080000
        k(    5) = (   0.0000000   0.0000000   0.4000000), wk =   0.0080000
        k(    6) = (   0.0000000   0.0000000  -0.5000000), wk =   0.0040000
        k(    7) = (   0.0000000   0.1000000   0.1000000), wk =   0.0040000
        k(    8) = (   0.0000000   0.1000000   0.2000000), wk =   0.0080000
        k(    9) = (   0.0000000   0.1000000   0.3000000), wk =   0.0080000
        k(   10) = (   0.0000000   0.1000000   0.4000000), wk =   0.0080000
        k(   11) = (   0.0000000   0.1000000  -0.5000000), wk =   0.0080000
        k(   12) = (   0.0000000   0.1000000  -0.4000000), wk =   0.0080000
        k(   13) = (   0.0000000   0.1000000  -0.3000000), wk =   0.0080000
        k(   14) = (   0.0000000   0.1000000  -0.2000000), wk =   0.0080000
        k(   15) = (   0.0000000   0.1000000  -0.1000000), wk =   0.0040000
        k(   16) = (   0.0000000   0.2000000   0.2000000), wk =   0.0040000
        k(   17) = (   0.0000000   0.2000000   0.3000000), wk =   0.0080000
        k(   18) = (   0.0000000   0.2000000   0.4000000), wk =   0.0080000
        k(   19) = (   0.0000000   0.2000000  -0.5000000), wk =   0.0080000
        k(   20) = (   0.0000000   0.2000000  -0.4000000), wk =   0.0080000
        k(   21) = (   0.0000000   0.2000000  -0.3000000), wk =   0.0080000
        k(   22) = (   0.0000000   0.2000000  -0.2000000), wk =   0.0040000
        k(   23) = (   0.0000000   0.3000000   0.3000000), wk =   0.0040000
        k(   24) = (   0.0000000   0.3000000   0.4000000), wk =   0.0080000
        k(   25) = (   0.0000000   0.3000000  -0.5000000), wk =   0.0080000
        k(   26) = (   0.0000000   0.3000000  -0.4000000), wk =   0.0080000
        k(   27) = (   0.0000000   0.3000000  -0.3000000), wk =   0.0040000
        k(   28) = (   0.0000000   0.4000000   0.4000000), wk =   0.0040000
        k(   29) = (   0.0000000   0.4000000  -0.5000000), wk =   0.0080000
        k(   30) = (   0.0000000   0.4000000  -0.4000000), wk =   0.0040000
        k(   31) = (   0.0000000  -0.5000000  -0.5000000), wk =   0.0020000
        k(   32) = (   0.1000000  -0.0000000  -0.0000000), wk =   0.0080000
        k(   33) = (   0.1000000  -0.0000000   0.1000000), wk =   0.0080000
        k(   34) = (   0.1000000   0.0000000   0.2000000), wk =   0.0160000
        k(   35) = (   0.1000000   0.0000000   0.3000000), wk =   0.0160000
        k(   36) = (   0.1000000   0.0000000   0.4000000), wk =   0.0160000
        k(   37) = (   0.1000000   0.0000000  -0.5000000), wk =   0.0160000
        k(   38) = (   0.1000000   0.0000000  -0.4000000), wk =   0.0160000
        k(   39) = (   0.1000000   0.0000000  -0.3000000), wk =   0.0160000
        k(   40) = (   0.1000000   0.0000000  -0.2000000), wk =   0.0160000
        k(   41) = (   0.1000000   0.0000000  -0.1000000), wk =   0.0160000
        k(   42) = (   0.1000000   0.2000000   0.2000000), wk =   0.0080000
        k(   43) = (   0.1000000   0.2000000   0.3000000), wk =   0.0160000
        k(   44) = (   0.1000000   0.2000000   0.4000000), wk =   0.0160000
        k(   45) = (   0.1000000   0.2000000  -0.5000000), wk =   0.0160000
        k(   46) = (   0.1000000   0.2000000  -0.4000000), wk =   0.0160000
        k(   47) = (   0.1000000   0.2000000  -0.3000000), wk =   0.0160000
        k(   48) = (   0.1000000   0.2000000  -0.2000000), wk =   0.0160000
        k(   49) = (   0.1000000   0.2000000  -0.1000000), wk =   0.0080000
        k(   50) = (   0.1000000   0.3000000   0.3000000), wk =   0.0080000
        k(   51) = (   0.1000000   0.3000000   0.4000000), wk =   0.0160000
        k(   52) = (   0.1000000   0.3000000  -0.5000000), wk =   0.0160000
        k(   53) = (   0.1000000   0.3000000  -0.4000000), wk =   0.0160000
        k(   54) = (   0.1000000   0.3000000  -0.3000000), wk =   0.0160000
        k(   55) = (   0.1000000   0.3000000  -0.2000000), wk =   0.0080000
        k(   56) = (   0.1000000   0.4000000   0.4000000), wk =   0.0080000
        k(   57) = (   0.1000000   0.4000000  -0.5000000), wk =   0.0160000
        k(   58) = (   0.1000000   0.4000000  -0.4000000), wk =   0.0160000
        k(   59) = (   0.1000000   0.4000000  -0.3000000), wk =   0.0080000
        k(   60) = (   0.1000000  -0.5000000  -0.5000000), wk =   0.0080000
        k(   61) = (   0.1000000  -0.5000000  -0.4000000), wk =   0.0080000
        k(   62) = (   0.2000000  -0.0000000  -0.0000000), wk =   0.0080000
        k(   63) = (   0.2000000  -0.0000000   0.1000000), wk =   0.0160000
        k(   64) = (   0.2000000  -0.0000000   0.2000000), wk =   0.0080000
        k(   65) = (   0.2000000   0.0000000   0.3000000), wk =   0.0160000
        k(   66) = (   0.2000000   0.0000000   0.4000000), wk =   0.0160000
        k(   67) = (   0.2000000   0.0000000  -0.5000000), wk =   0.0160000
        k(   68) = (   0.2000000   0.0000000  -0.4000000), wk =   0.0160000
        k(   69) = (   0.2000000   0.0000000  -0.3000000), wk =   0.0160000
        k(   70) = (   0.2000000   0.0000000  -0.2000000), wk =   0.0160000
        k(   71) = (   0.2000000   0.0000000  -0.1000000), wk =   0.0160000
        k(   72) = (   0.2000000   0.1000000   0.1000000), wk =   0.0040000
        k(   73) = (   0.2000000   0.1000000   0.3000000), wk =   0.0160000
        k(   74) = (   0.2000000   0.1000000   0.4000000), wk =   0.0160000
        k(   75) = (   0.2000000   0.1000000  -0.5000000), wk =   0.0160000
        k(   76) = (   0.2000000   0.1000000  -0.4000000), wk =   0.0080000
        k(   77) = (   0.2000000   0.3000000   0.3000000), wk =   0.0080000
        k(   78) = (   0.2000000   0.3000000   0.4000000), wk =   0.0160000
        k(   79) = (   0.2000000   0.3000000  -0.5000000), wk =   0.0160000
        k(   80) = (   0.2000000   0.3000000  -0.4000000), wk =   0.0160000
        k(   81) = (   0.2000000   0.3000000  -0.3000000), wk =   0.0160000
        k(   82) = (   0.2000000   0.3000000  -0.2000000), wk =   0.0160000
        k(   83) = (   0.2000000   0.3000000  -0.1000000), wk =   0.0080000
        k(   84) = (   0.2000000   0.4000000   0.4000000), wk =   0.0080000
        k(   85) = (   0.2000000   0.4000000  -0.5000000), wk =   0.0160000
        k(   86) = (   0.2000000   0.4000000  -0.4000000), wk =   0.0160000
        k(   87) = (   0.2000000   0.4000000  -0.3000000), wk =   0.0160000
        k(   88) = (   0.2000000   0.4000000  -0.2000000), wk =   0.0080000
        k(   89) = (   0.2000000  -0.5000000  -0.5000000), wk =   0.0080000
        k(   90) = (   0.2000000  -0.5000000  -0.4000000), wk =   0.0160000
        k(   91) = (   0.2000000  -0.5000000  -0.3000000), wk =   0.0080000
        k(   92) = (   0.2000000  -0.4000000  -0.4000000), wk =   0.0040000
        k(   93) = (   0.3000000   0.0000000   0.0000000), wk =   0.0080000
        k(   94) = (   0.3000000   0.0000000   0.1000000), wk =   0.0160000
        k(   95) = (   0.3000000   0.0000000   0.2000000), wk =   0.0160000
        k(   96) = (   0.3000000   0.0000000   0.3000000), wk =   0.0080000
        k(   97) = (   0.3000000   0.0000000   0.4000000), wk =   0.0160000
        k(   98) = (   0.3000000   0.0000000  -0.5000000), wk =   0.0160000
        k(   99) = (   0.3000000   0.0000000  -0.4000000), wk =   0.0160000
        k(  100) = (   0.3000000   0.0000000  -0.3000000), wk =   0.0160000
        k(  101) = (   0.3000000  -0.0000000  -0.2000000), wk =   0.0160000
        k(  102) = (   0.3000000   0.0000000  -0.1000000), wk =   0.0160000
        k(  103) = (   0.3000000   0.1000000   0.1000000), wk =   0.0080000
        k(  104) = (   0.3000000   0.1000000   0.2000000), wk =   0.0080000
        k(  105) = (   0.3000000   0.1000000   0.4000000), wk =   0.0160000
        k(  106) = (   0.3000000   0.1000000  -0.5000000), wk =   0.0160000
        k(  107) = (   0.3000000   0.1000000  -0.4000000), wk =   0.0160000
        k(  108) = (   0.3000000   0.1000000  -0.3000000), wk =   0.0160000
        k(  109) = (   0.3000000   0.1000000  -0.2000000), wk =   0.0160000
        k(  110) = (   0.3000000   0.1000000  -0.1000000), wk =   0.0160000
        k(  111) = (   0.3000000   0.4000000   0.4000000), wk =   0.0080000
        k(  112) = (   0.3000000   0.4000000  -0.5000000), wk =   0.0160000
        k(  113) = (   0.3000000   0.4000000  -0.4000000), wk =   0.0160000
        k(  114) = (   0.3000000   0.4000000  -0.3000000), wk =   0.0160000
        k(  115) = (   0.3000000   0.4000000  -0.2000000), wk =   0.0160000
        k(  116) = (   0.3000000   0.4000000  -0.1000000), wk =   0.0080000
        k(  117) = (   0.3000000  -0.5000000  -0.5000000), wk =   0.0080000
        k(  118) = (   0.3000000  -0.5000000  -0.4000000), wk =   0.0160000
        k(  119) = (   0.3000000  -0.5000000  -0.3000000), wk =   0.0160000
        k(  120) = (   0.3000000  -0.5000000  -0.2000000), wk =   0.0080000
        k(  121) = (   0.3000000  -0.4000000  -0.4000000), wk =   0.0080000
        k(  122) = (   0.3000000  -0.4000000  -0.3000000), wk =   0.0080000
        k(  123) = (   0.4000000  -0.0000000  -0.0000000), wk =   0.0080000
        k(  124) = (   0.4000000  -0.0000000   0.1000000), wk =   0.0160000
        k(  125) = (   0.4000000  -0.0000000   0.2000000), wk =   0.0160000
        k(  126) = (   0.4000000  -0.0000000   0.3000000), wk =   0.0160000
        k(  127) = (   0.4000000  -0.0000000   0.4000000), wk =   0.0080000
        k(  128) = (   0.4000000   0.0000000  -0.5000000), wk =   0.0160000
        k(  129) = (   0.4000000   0.0000000  -0.4000000), wk =   0.0160000
        k(  130) = (   0.4000000   0.0000000  -0.3000000), wk =   0.0160000
        k(  131) = (   0.4000000   0.0000000  -0.2000000), wk =   0.0160000
        k(  132) = (   0.4000000   0.0000000  -0.1000000), wk =   0.0160000
        k(  133) = (   0.4000000   0.1000000   0.1000000), wk =   0.0080000
        k(  134) = (   0.4000000   0.1000000   0.2000000), wk =   0.0160000
        k(  135) = (   0.4000000   0.1000000   0.3000000), wk =   0.0080000
        k(  136) = (   0.4000000   0.1000000  -0.5000000), wk =   0.0160000
        k(  137) = (   0.4000000   0.1000000  -0.4000000), wk =   0.0160000
        k(  138) = (   0.4000000   0.1000000  -0.3000000), wk =   0.0160000
        k(  139) = (   0.4000000   0.1000000  -0.2000000), wk =   0.0160000
        k(  140) = (   0.4000000   0.1000000  -0.1000000), wk =   0.0160000
        k(  141) = (   0.4000000   0.2000000   0.2000000), wk =   0.0040000
        k(  142) = (   0.4000000   0.2000000  -0.5000000), wk =   0.0160000
        k(  143) = (   0.4000000   0.2000000  -0.4000000), wk =   0.0160000
        k(  144) = (   0.4000000   0.2000000  -0.3000000), wk =   0.0080000
        k(  145) = (   0.4000000  -0.5000000  -0.5000000), wk =   0.0080000
        k(  146) = (   0.4000000  -0.5000000  -0.4000000), wk =   0.0160000
        k(  147) = (   0.4000000  -0.5000000  -0.3000000), wk =   0.0160000
        k(  148) = (   0.4000000  -0.5000000  -0.2000000), wk =   0.0160000
        k(  149) = (   0.4000000  -0.5000000  -0.1000000), wk =   0.0080000
        k(  150) = (   0.4000000  -0.4000000  -0.4000000), wk =   0.0080000
        k(  151) = (   0.4000000  -0.4000000  -0.3000000), wk =   0.0160000
        k(  152) = (   0.4000000  -0.4000000  -0.2000000), wk =   0.0080000
        k(  153) = (   0.4000000  -0.3000000  -0.3000000), wk =   0.0040000
        k(  154) = (  -0.5000000  -0.0000000  -0.0000000), wk =   0.0040000
        k(  155) = (  -0.5000000   0.0000000   0.1000000), wk =   0.0160000
        k(  156) = (  -0.5000000   0.0000000   0.2000000), wk =   0.0160000
        k(  157) = (  -0.5000000   0.0000000   0.3000000), wk =   0.0160000
        k(  158) = (  -0.5000000  -0.0000000   0.4000000), wk =   0.0160000
        k(  159) = (  -0.5000000  -0.0000000  -0.5000000), wk =   0.0040000
        k(  160) = (  -0.5000000   0.1000000   0.1000000), wk =   0.0080000
        k(  161) = (  -0.5000000   0.1000000   0.2000000), wk =   0.0160000
        k(  162) = (  -0.5000000   0.1000000   0.3000000), wk =   0.0160000
        k(  163) = (  -0.5000000   0.1000000   0.4000000), wk =   0.0080000
        k(  164) = (  -0.5000000   0.1000000  -0.4000000), wk =   0.0080000
        k(  165) = (  -0.5000000   0.1000000  -0.3000000), wk =   0.0160000
        k(  166) = (  -0.5000000   0.1000000  -0.2000000), wk =   0.0160000
        k(  167) = (  -0.5000000   0.1000000  -0.1000000), wk =   0.0080000
        k(  168) = (  -0.5000000   0.2000000   0.2000000), wk =   0.0080000
        k(  169) = (  -0.5000000   0.2000000   0.3000000), wk =   0.0080000
        k(  170) = (  -0.5000000   0.2000000  -0.3000000), wk =   0.0080000
        k(  171) = (  -0.5000000   0.2000000  -0.2000000), wk =   0.0080000

     Dense  grid:    20255 G-vectors     FFT dimensions: (  40,  40,  40)

     Smooth grid:    12325 G-vectors     FFT dimensions: (  36,  36,  36)

     Dynamical RAM for                 wfc:       0.02 MB

     Dynamical RAM for     wfc (w. buffer):       4.06 MB

     Dynamical RAM for           str. fact:       0.05 MB

     Dynamical RAM for           local pot:       0.00 MB

     Dynamical RAM for          nlocal pot:       0.07 MB

     Dynamical RAM for                qrad:       4.11 MB

     Dynamical RAM for          rho,v,vnew:       0.22 MB

     Dynamical RAM for               rhoin:       0.07 MB

     Dynamical RAM for            rho*nmix:       0.41 MB

     Dynamical RAM for           G-vectors:       0.10 MB

     Dynamical RAM for          h,s,v(r/c):       0.01 MB

     Dynamical RAM for          <psi|beta>:       0.01 MB

     Dynamical RAM for                 psi:       0.09 MB

     Dynamical RAM for                hpsi:       0.09 MB

     Dynamical RAM for                spsi:       0.09 MB

     Dynamical RAM for      wfcinit/wfcrot:       0.05 MB

     Dynamical RAM for           addusdens:       5.31 MB

     Dynamical RAM for          addusforce:       5.41 MB

     Dynamical RAM for         addusstress:       5.67 MB

     Estimated static dynamical RAM per process >       9.43 MB

     Estimated max dynamical RAM per process >      15.10 MB

     Estimated total dynamical RAM >     181.22 MB

     Initial potential from superposition of free atoms

     starting charge   15.69974, renormalised to   16.00000
     Starting wfcs are   12 randomized atomic wfcs

     total cpu time spent up to now is        0.7 secs

     Self-consistent Calculation

     iteration #  1     ecut=    45.00 Ry     beta= 0.30
     Davidson diagonalization with overlap
     ethr =  1.00E-02,  avg # of iterations =  4.5

     total cpu time spent up to now is        3.3 secs

     total energy              =    -149.37655562 Ry
     Harris-Foulkes estimate   =    -149.40662589 Ry
     estimated scf accuracy    <       0.17564777 Ry

     iteration #  2     ecut=    45.00 Ry     beta= 0.30
     Davidson diagonalization with overlap
     ethr =  1.10E-03,  avg # of iterations =  1.0

     total cpu time spent up to now is        4.5 secs

     total energy              =    -149.32041503 Ry
     Harris-Foulkes estimate   =    -149.38034682 Ry
     estimated scf accuracy    <       0.10691500 Ry

     iteration #  3     ecut=    45.00 Ry     beta= 0.30
     Davidson diagonalization with overlap
     ethr =  6.68E-04,  avg # of iterations =  2.1

     total cpu time spent up to now is        6.1 secs

     total energy              =    -149.33510556 Ry
     Harris-Foulkes estimate   =    -149.33809703 Ry
     estimated scf accuracy    <       0.00770057 Ry

     iteration #  4     ecut=    45.00 Ry     beta= 0.30
     Davidson diagonalization with overlap
     ethr =  4.81E-05,  avg # of iterations =  3.3

     total cpu time spent up to now is        8.2 secs

     total energy              =    -149.33444408 Ry
     Harris-Foulkes estimate   =    -149.33550650 Ry
     estimated scf accuracy    <       0.00179682 Ry

     iteration #  5     ecut=    45.00 Ry     beta= 0.30
     Davidson diagonalization with overlap
     ethr =  1.12E-05,  avg # of iterations =  2.1

     total cpu time spent up to now is        9.9 secs

     total energy              =    -149.33463265 Ry
     Harris-Foulkes estimate   =    -149.33461642 Ry
     estimated scf accuracy    <       0.00008949 Ry

     iteration #  6     ecut=    45.00 Ry     beta= 0.30
     Davidson diagonalization with overlap
     ethr =  5.59E-07,  avg # of iterations =  2.4

     total cpu time spent up to now is       11.7 secs

     total energy              =    -149.33463853 Ry
     Harris-Foulkes estimate   =    -149.33464888 Ry
     estimated scf accuracy    <       0.00003613 Ry

     iteration #  7     ecut=    45.00 Ry     beta= 0.30
     Davidson diagonalization with overlap
     ethr =  2.26E-07,  avg # of iterations =  2.0

     total cpu time spent up to now is       13.3 secs

     total energy              =    -149.33464547 Ry
     Harris-Foulkes estimate   =    -149.33464491 Ry
     estimated scf accuracy    <       0.00000128 Ry

     iteration #  8     ecut=    45.00 Ry     beta= 0.30
     Davidson diagonalization with overlap
     ethr =  8.02E-09,  avg # of iterations =  2.9

     total cpu time spent up to now is       15.3 secs

     total energy              =    -149.33464542 Ry
     Harris-Foulkes estimate   =    -149.33464592 Ry
     estimated scf accuracy    <       0.00000148 Ry

     iteration #  9     ecut=    45.00 Ry     beta= 0.30
     Davidson diagonalization with overlap
     ethr =  8.02E-09,  avg # of iterations =  2.0

     total cpu time spent up to now is       16.9 secs

     total energy              =    -149.33464559 Ry
     Harris-Foulkes estimate   =    -149.33464559 Ry
     estimated scf accuracy    <       0.00000005 Ry

     iteration # 10     ecut=    45.00 Ry     beta= 0.30
     Davidson diagonalization with overlap
     ethr =  3.17E-10,  avg # of iterations =  2.1

     total cpu time spent up to now is       18.7 secs

     total energy              =    -149.33464561 Ry
     Harris-Foulkes estimate   =    -149.33464560 Ry
     estimated scf accuracy    <          8.4E-09 Ry

     iteration # 11     ecut=    45.00 Ry     beta= 0.30
     Davidson diagonalization with overlap
     ethr =  5.25E-11,  avg # of iterations =  2.1

     total cpu time spent up to now is       20.4 secs

     End of self-consistent calculation

          k = 0.0000 0.0000 0.0000 (  1497 PWs)   bands (ev):

   -70.4213 -37.3855 -37.3854 -37.3854  -8.2951   2.9615   2.9908   3.0248
     6.3114  10.7133  10.8519  10.9862

     occupation numbers 
     1.0000   1.0000   1.0000   1.0000   1.0000   1.0000   1.0000   1.0000
     0.0000   0.0000   0.0000   0.0000

          k =-0.0721 0.0721 0.0714 (  1532 PWs)   bands (ev):

   -70.4213 -37.3857 -37.3855 -37.3855  -8.2354   2.5283   2.9259   2.9637
     6.7785  10.7850  10.8428  11.0364

     occupation numbers 
     1.0000   1.0000   1.0000   1.0000   1.0000   1.0000   1.0000   1.0000
     0.0000   0.0000   0.0000   0.0000

          k =-0.1443 0.1443 0.1428 (  1550 PWs)   bands (ev):

   -70.4213 -37.3864 -37.3857 -37.3856  -8.0713   1.5845   2.8372   2.8672
     7.5611  10.6546  11.0073  11.1819

     occupation numbers 
     1.0000   1.0000   1.0000   1.0000   1.0000   1.0000   1.0000   1.0000
     0.0000   0.0000   0.0000   0.0000

          k =-0.2164 0.2164 0.2143 (  1547 PWs)   bands (ev):

   -70.4213 -37.3873 -37.3858 -37.3857  -7.8502   0.6774   2.7357   2.7571
     7.9581  10.8089  10.9065  10.9815

     occupation numbers 
     1.0000   1.0000   1.0000   1.0000   1.0000   1.0000   1.0000   1.0000
     0.0000   0.0000   0.0000   0.0000

          k =-0.2886 0.2886 0.2857 (  1550 PWs)   bands (ev):

   -70.4212 -37.3880 -37.3859 -37.3859  -7.6529   0.0349   2.6593   2.6740
     7.9867  10.5170  10.6576  11.3210

     occupation numbers 
     1.0000   1.0000   1.0000   1.0000   1.0000   1.0000   1.0000   1.0000
     0.0000   0.0000   0.0000   0.0000

          k = 0.3607-0.3607-0.3571 (  1542 PWs)   bands (ev):

   -70.4212 -37.3883 -37.3860 -37.3859  -7.5722  -0.1988   2.6313   2.6435
     7.9614  10.4008  10.5421  11.4447

     occupation numbers 
     1.0000   1.0000   1.0000   1.0000   1.0000   1.0000   1.0000   1.0000
     0.0000   0.0000   0.0000   0.0000

          k = 0.0000 0.0000 0.1428 (  1531 PWs)   bands (ev):

   -70.4213 -37.3857 -37.3856 -37.3855  -8.2174   2.5005   2.8344   2.9078
     6.9402  10.4823  11.0003  11.2518

     occupation numbers 
     1.0000   1.0000   1.0000   1.0000   1.0000   1.0000   1.0000   1.0000
     0.0000   0.0000   0.0000   0.0000

          k =-0.0721 0.0721 0.2143 (  1538 PWs)   bands (ev):

   -70.4213 -37.3862 -37.3857 -37.3856  -8.0896   1.8128   2.7050   2.8121
     7.6226  10.2594  11.2766  11.2829

     occupation numbers 
     1.0000   1.0000   1.0000   1.0000   1.0000   1.0000   1.0000   1.0000
     0.0000   0.0000   0.0000   0.0000

          k =-0.1443 0.1443 0.2857 (  1555 PWs)   bands (ev):

   -70.4213 -37.3870 -37.3859 -37.3857  -7.8875   0.9635   2.5914   2.6682
     8.1574  10.3747  10.8286  11.2611

     occupation numbers 
     1.0000   1.0000   1.0000   1.0000   1.0000   1.0000   1.0000   1.0000
     0.0000   0.0000   0.0000   0.0000

          k =-0.2164 0.2164 0.3571 (  1555 PWs)   bands (ev):

   -70.4212 -37.3877 -37.3860 -37.3859  -7.6792   0.2699   2.5039   2.5326
     8.2916  10.1092  10.9531  11.3296

     occupation numbers 
     1.0000   1.0000   1.0000   1.0000   1.0000   1.0000   1.0000   1.0000
     0.0000   0.0000   0.0000   0.0000

          k = 0.4328-0.4328-0.2857 (  1549 PWs)   bands (ev):

   -70.4212 -37.3881 -37.3861 -37.3860  -7.5544  -0.0906   2.3781   2.5452
     8.3080   9.9018  10.6997  11.8276

     occupation numbers 
     1.0000   1.0000   1.0000   1.0000   1.0000   1.0000   1.0000   1.0000
     0.0000   0.0000   0.0000   0.0000

          k = 0.3607-0.3607-0.2143 (  1547 PWs)   bands (ev):

   -70.4212 -37.3881 -37.3861 -37.3860  -7.5788  -0.0224   2.3308   2.6237
     8.3494   9.9806  10.6505  11.7009

     occupation numbers 
     1.0000   1.0000   1.0000   1.0000   1.0000   1.0000   1.0000   1.0000
     0.0000   0.0000   0.0000   0.0000

          k = 0.2886-0.2886-0.1428 (  1546 PWs)   bands (ev):

   -70.4212 -37.3875 -37.3860 -37.3858  -7.7387   0.4542   2.3796   2.7437
     8.3560  10.3111  10.8336  11.1124

     occupation numbers 
     1.0000   1.0000   1.0000   1.0000   1.0000   1.0000   1.0000   1.0000
     0.0000   0.0000   0.0000   0.0000

          k = 0.2164-0.2164-0.0714 (  1541 PWs)   bands (ev):

   -70.4213 -37.3867 -37.3858 -37.3857  -7.9542   1.2089   2.5223   2.8644
     8.0538  10.4436  11.0090  11.1112

     occupation numbers 
     1.0000   1.0000   1.0000   1.0000   1.0000   1.0000   1.0000   1.0000
     0.0000   0.0000   0.0000   0.0000

          k = 0.1443-0.1443 0.0000 (  1546 PWs)   bands (ev):

   -70.4213 -37.3860 -37.3856 -37.3856  -8.1392   2.0169   2.7419   2.9369
     7.3410  10.5583  10.9875  11.2314

     occupation numbers 
     1.0000   1.0000   1.0000   1.0000   1.0000   1.0000   1.0000   1.0000
     0.0000   0.0000   0.0000   0.0000

          k = 0.0000 0.0000 0.2857 (  1541 PWs)   bands (ev):

   -70.4213 -37.3864 -37.3859 -37.3857  -8.0043   1.6215   2.5310   2.6261
     7.9308   9.7522  11.3561  11.7778

     occupation numbers 
     1.0000   1.0000   1.0000   1.0000   1.0000   1.0000   1.0000   1.0000
     0.0000   0.0000   0.0000   0.0000

          k =-0.0721 0.0721 0.3571 (  1559 PWs)   bands (ev):

   -70.4213 -37.3869 -37.3860 -37.3859  -7.8390   1.0762   2.3847   2.4325
     8.1593   9.6367  10.9453  12.0648

     occupation numbers 
     1.0000   1.0000   1.0000   1.0000   1.0000   1.0000   1.0000   1.0000
     0.0000   0.0000   0.0000   0.0000

          k =-0.1443 0.1443 0.4285 (  1553 PWs)   bands (ev):

   -70.4212 -37.3875 -37.3862 -37.3862  -7.6474   0.5284   2.1403   2.3135
     8.2372   9.8785  10.8667  11.8710

     occupation numbers 
     1.0000   1.0000   1.0000   1.0000   1.0000   1.0000   1.0000   1.0000
     0.0000   0.0000   0.0000   0.0000

          k = 0.5050-0.5050-0.2143 (  1559 PWs)   bands (ev):

   -70.4212 -37.3879 -37.3864 -37.3862  -7.5059   0.1804   1.8507   2.3366
     8.3533   9.8209  11.5348  11.5360

     occupation numbers 
     1.0000   1.0000   1.0000   1.0000   1.0000   1.0000   1.0000   1.0000
     0.0000   0.0000   0.0000   0.0000

          k = 0.4328-0.4328-0.1428 (  1555 PWs)   bands (ev):

   -70.4212 -37.3879 -37.3866 -37.3861  -7.4824   0.1379   1.6832   2.4469
     8.6602   9.6703  11.3164  11.8127

     occupation numbers 
     1.0000   1.0000   1.0000   1.0000   1.0000   1.0000   1.0000   1.0000
     0.0000   0.0000   0.0000   0.0000

          k = 0.3607-0.3607-0.0714 (  1550 PWs)   bands (ev):

   -70.4212 -37.3877 -37.3865 -37.3860  -7.5894   0.3898   1.7235   2.6116
     9.1099   9.5935  11.1019  11.2899

     occupation numbers 
     1.0000   1.0000   1.0000   1.0000   1.0000   1.0000   1.0000   1.0000
     0.0000   0.0000   0.0000   0.0000

          k = 0.2886-0.2886 0.0000 (  1550 PWs)   bands (ev):

   -70.4213 -37.3872 -37.3862 -37.3858  -7.7727   0.7950   2.0303   2.7737
     8.8532  10.0183  10.6345  11.3621

     occupation numbers 
     1.0000   1.0000   1.0000   1.0000   1.0000   1.0000   1.0000   1.0000
     0.0000   0.0000   0.0000   0.0000

          k = 0.0000 0.0000 0.4285 (  1558 PWs)   bands (ev):

   -70.4213 -37.3872 -37.3862 -37.3860  -7.7189   0.8403   2.2011   2.3166
     7.7322   9.1424  11.7312  12.8877

     occupation numbers 
     1.0000   1.0000   1.0000   1.0000   1.0000   1.0000   1.0000   1.0000
     0.0000   0.0000   0.0000   0.0000

          k =-0.0721 0.0721 0.4999 (  1557 PWs)   bands (ev):

   -70.4212 -37.3876 -37.3863 -37.3862  -7.5668   0.5210   2.0503   2.0994
     7.5294   9.1413  11.9609  13.0958

     occupation numbers 
     1.0000   1.0000   1.0000   1.0000   1.0000   1.0000   1.0000   1.0000
     0.0000   0.0000   0.0000   0.0000

          k = 0.5771-0.5771-0.1428 (  1554 PWs)   bands (ev):

   -70.4212 -37.3878 -37.3866 -37.3864  -7.4414   0.3616   1.5781   2.1061
     7.6274   9.6457  11.9285  12.7699

     occupation numbers 
     1.0000   1.0000   1.0000   1.0000   1.0000   1.0000   1.0000   1.0000
     0.0000   0.0000   0.0000   0.0000

          k = 0.5050-0.5050-0.0714 (  1549 PWs)   bands (ev):

   -70.4212 -37.3878 -37.3869 -37.3863  -7.3982   0.4286   1.1396   2.2193
     7.9620  10.2040  11.9367  12.3491

     occupation numbers 
     1.0000   1.0000   1.0000   1.0000   1.0000   1.0000   1.0000   1.0000
     0.0000   0.0000   0.0000   0.0000

          k = 0.4328-0.4328-0.0000 (  1552 PWs)   bands (ev):

   -70.4212 -37.3877 -37.3870 -37.3861  -7.4570   0.4713   1.1584   2.4083
     8.5312  10.2177  11.3832  11.8855

     occupation numbers 
     1.0000   1.0000   1.0000   1.0000   1.0000   1.0000   1.0000   1.0000
     0.0000   0.0000   0.0000   0.0000

          k = 0.0000 0.0000 0.5713 (  1562 PWs)   bands (ev):

   -70.4212 -37.3879 -37.3865 -37.3863  -7.4659   0.3141   1.9618   2.0903
     6.9962   8.6993  13.2039  14.1885

     occupation numbers 
     1.0000   1.0000   1.0000   1.0000   1.0000   1.0000   1.0000   1.0000
     0.0000   0.0000   0.0000   0.0000

          k = 0.6493-0.6493-0.0714 (  1562 PWs)   bands (ev):

   -70.4212 -37.3881 -37.3865 -37.3865  -7.3854   0.2262   1.8160   1.9369
     6.9784   8.8509  13.3459  14.2002

     occupation numbers 
     1.0000   1.0000   1.0000   1.0000   1.0000   1.0000   1.0000   1.0000
     0.0000   0.0000   0.0000   0.0000

          k = 0.5771-0.5771 0.0000 (  1562 PWs)   bands (ev):

   -70.4212 -37.3879 -37.3868 -37.3865  -7.3597   0.3626   1.3082   2.0305
     7.3570   9.5473  12.8872  13.4411

     occupation numbers 
     1.0000   1.0000   1.0000   1.0000   1.0000   1.0000   1.0000   1.0000
     0.0000   0.0000   0.0000   0.0000

          k = 0.0000 0.0000-0.7142 (  1568 PWs)   bands (ev):

   -70.4212 -37.3882 -37.3866 -37.3864  -7.3630   0.1269   1.8757   2.0086
     6.6934   8.5412  14.0679  15.1603

     occupation numbers 
     1.0000   1.0000   1.0000   1.0000   1.0000   1.0000   1.0000   1.0000
     0.0000   0.0000   0.0000   0.0000

          k = 0.0707 0.0707-0.0714 (  1514 PWs)   bands (ev):

   -70.4213 -37.3857 -37.3855 -37.3854  -8.2381   2.4885   2.9487   2.9896
     6.7865  10.6258  10.9303  11.1052

     occupation numbers 
     1.0000   1.0000   1.0000   1.0000   1.0000   1.0000   1.0000   1.0000
     0.0000   0.0000   0.0000   0.0000

          k =-0.0014 0.1428-0.0000 (  1519 PWs)   bands (ev):

   -70.4213 -37.3857 -37.3855 -37.3855  -8.2173   2.5014   2.8689   2.8723
     6.9397  10.4596  11.1294  11.1449

     occupation numbers 
     1.0000   1.0000   1.0000   1.0000   1.0000   1.0000   1.0000   1.0000
     0.0000   0.0000   0.0000   0.0000

          k =-0.0736 0.2150 0.0714 (  1538 PWs)   bands (ev):

   -70.4213 -37.3862 -37.3857 -37.3856  -8.0871   1.8053   2.7367   2.7885
     7.6111  10.2352  11.1794  11.4158

     occupation numbers 
     1.0000   1.0000   1.0000   1.0000   1.0000   1.0000   1.0000   1.0000
     0.0000   0.0000   0.0000   0.0000

          k =-0.1457 0.2871 0.1428 (  1552 PWs)   bands (ev):

   -70.4213 -37.3870 -37.3858 -37.3858  -7.8837   0.9463   2.6178   2.6655
     8.1557  10.2829  10.7551  11.3644

     occupation numbers 
     1.0000   1.0000   1.0000   1.0000   1.0000   1.0000   1.0000   1.0000
     0.0000   0.0000   0.0000   0.0000

          k =-0.2178 0.3593 0.2143 (  1548 PWs)   bands (ev):

   -70.4212 -37.3878 -37.3860 -37.3859  -7.6760   0.2544   2.5056   2.5553
     8.2998  10.0314  11.0373  11.2205

     occupation numbers 
     1.0000   1.0000   1.0000   1.0000   1.0000   1.0000   1.0000   1.0000
     0.0000   0.0000   0.0000   0.0000

          k = 0.4314-0.2900-0.4285 (  1552 PWs)   bands (ev):

   -70.4212 -37.3882 -37.3861 -37.3860  -7.5541  -0.0971   2.3752   2.5617
     8.3139   9.8372  10.7951  11.7576

     occupation numbers 
     1.0000   1.0000   1.0000   1.0000   1.0000   1.0000   1.0000   1.0000
     0.0000   0.0000   0.0000   0.0000

          k = 0.3593-0.2178-0.3571 (  1550 PWs)   bands (ev):

   -70.4212 -37.3881 -37.3861 -37.3859  -7.5823  -0.0170   2.3157   2.6372
     8.3522   9.9298  10.7532  11.7039

     occupation numbers 
     1.0000   1.0000   1.0000   1.0000   1.0000   1.0000   1.0000   1.0000
     0.0000   0.0000   0.0000   0.0000

          k = 0.2871-0.1457-0.2857 (  1549 PWs)   bands (ev):

   -70.4213 -37.3875 -37.3860 -37.3858  -7.7448   0.4688   2.3524   2.7581
     8.3623  10.2815  10.9380  11.1304

     occupation numbers 
     1.0000   1.0000   1.0000   1.0000   1.0000   1.0000   1.0000   1.0000
     0.0000   0.0000   0.0000   0.0000

          k = 0.2150-0.0736-0.2143 (  1548 PWs)   bands (ev):

   -70.4213 -37.3867 -37.3859 -37.3856  -7.9607   1.2232   2.4923   2.8837
     8.0755  10.4602  10.9185  11.2376

     occupation numbers 
     1.0000   1.0000   1.0000   1.0000   1.0000   1.0000   1.0000   1.0000
     0.0000   0.0000   0.0000   0.0000

          k = 0.1428-0.0014-0.1428 (  1535 PWs)   bands (ev):

   -70.4213 -37.3861 -37.3856 -37.3855  -8.1443   2.0068   2.7335   2.9643
     7.3623  10.4847  11.0706  11.2222

     occupation numbers 
     1.0000   1.0000   1.0000   1.0000   1.0000   1.0000   1.0000   1.0000
     0.0000   0.0000   0.0000   0.0000

          k = 0.0707 0.0707 0.2143 (  1533 PWs)   bands (ev):

   -70.4213 -37.3863 -37.3857 -37.3856  -8.0924   1.7814   2.7771   2.7858
     7.6318  10.2046  11.1348  11.5027

     occupation numbers 
     1.0000   1.0000   1.0000   1.0000   1.0000   1.0000   1.0000   1.0000
     0.0000   0.0000   0.0000   0.0000

          k =-0.0014 0.1428 0.2857 (  1546 PWs)   bands (ev):

   -70.4213 -37.3867 -37.3859 -37.3857  -7.9454   1.2945   2.4061   2.7535
     8.2212   9.9934  10.8247  11.7454

     occupation numbers 
     1.0000   1.0000   1.0000   1.0000   1.0000   1.0000   1.0000   1.0000
     0.0000   0.0000   0.0000   0.0000

          k =-0.0736 0.2150 0.3571 (  1559 PWs)   bands (ev):

   -70.4213 -37.3873 -37.3862 -37.3858  -7.7474   0.7086   2.1079   2.6270
     8.6414   9.9831  10.5709  11.6477

     occupation numbers 
     1.0000   1.0000   1.0000   1.0000   1.0000   1.0000   1.0000   1.0000
     0.0000   0.0000   0.0000   0.0000

          k = 0.5757-0.4343-0.2857 (  1552 PWs)   bands (ev):

   -70.4212 -37.3878 -37.3864 -37.3860  -7.5711   0.2296   1.9539   2.4902
     8.7641   9.5490  11.2695  11.4800

     occupation numbers 
     1.0000   1.0000   1.0000   1.0000   1.0000   1.0000   1.0000   1.0000
     0.0000   0.0000   0.0000   0.0000

          k = 0.5035-0.3621-0.2143 (  1556 PWs)   bands (ev):

   -70.4212 -37.3880 -37.3864 -37.3861  -7.4970   0.0382   1.9179   2.4321
     8.8355   9.3039  11.2519  11.8551

     occupation numbers 
     1.0000   1.0000   1.0000   1.0000   1.0000   1.0000   1.0000   1.0000
     0.0000   0.0000   0.0000   0.0000

          k = 0.4314-0.2900-0.1428 (  1551 PWs)   bands (ev):

   -70.4212 -37.3879 -37.3863 -37.3860  -7.5643   0.2084   1.9765   2.4899
     8.7897   9.4977  11.2254  11.3912

     occupation numbers 
     1.0000   1.0000   1.0000   1.0000   1.0000   1.0000   1.0000   1.0000
     0.0000   0.0000   0.0000   0.0000

          k = 0.3593-0.2178-0.0714 (  1550 PWs)   bands (ev):

   -70.4212 -37.3873 -37.3862 -37.3859  -7.7374   0.6809   2.1389   2.6220
     8.6428   9.9032  10.5163  11.6191

     occupation numbers 
     1.0000   1.0000   1.0000   1.0000   1.0000   1.0000   1.0000   1.0000
     0.0000   0.0000   0.0000   0.0000

          k = 0.2871-0.1457 0.0000 (  1545 PWs)   bands (ev):

   -70.4213 -37.3867 -37.3859 -37.3858  -7.9363   1.2879   2.4205   2.7358
     8.1851   9.9806  10.8220  11.6766

     occupation numbers 
     1.0000   1.0000   1.0000   1.0000   1.0000   1.0000   1.0000   1.0000
     0.0000   0.0000   0.0000   0.0000

          k = 0.0707 0.0707 0.3571 (  1539 PWs)   bands (ev):

   -70.4213 -37.3870 -37.3860 -37.3859  -7.8420   1.0541   2.3689   2.4871
     8.1889   9.5767  10.9019  12.2300

     occupation numbers 
     1.0000   1.0000   1.0000   1.0000   1.0000   1.0000   1.0000   1.0000
     0.0000   0.0000   0.0000   0.0000

          k =-0.0014 0.1428 0.4285 (  1551 PWs)   bands (ev):

   -70.4212 -37.3874 -37.3863 -37.3860  -7.6820   0.7138   2.0507   2.3539
     8.1426   9.5287  10.9111  12.7638

     occupation numbers 
     1.0000   1.0000   1.0000   1.0000   1.0000   1.0000   1.0000   1.0000
     0.0000   0.0000   0.0000   0.0000

          k = 0.6478-0.5064-0.2143 (  1556 PWs)   bands (ev):

   -70.4212 -37.3877 -37.3865 -37.3862  -7.5222   0.4390   1.7132   2.1924
     8.1989   9.8615  10.8682  12.5949

     occupation numbers 
     1.0000   1.0000   1.0000   1.0000   1.0000   1.0000   1.0000   1.0000
     0.0000   0.0000   0.0000   0.0000

          k = 0.5757-0.4343-0.1428 (  1554 PWs)   bands (ev):

   -70.4212 -37.3878 -37.3868 -37.3863  -7.4298   0.3221   1.4249   2.1618
     8.3807   9.9095  11.4003  12.2275

     occupation numbers 
     1.0000   1.0000   1.0000   1.0000   1.0000   1.0000   1.0000   1.0000
     0.0000   0.0000   0.0000   0.0000

          k = 0.5035-0.3621-0.0714 (  1552 PWs)   bands (ev):

   -70.4212 -37.3878 -37.3868 -37.3862  -7.4493   0.3704   1.3464   2.2775
     8.7270   9.7719  11.2428  12.0575

     occupation numbers 
     1.0000   1.0000   1.0000   1.0000   1.0000   1.0000   1.0000   1.0000
     0.0000   0.0000   0.0000   0.0000

          k = 0.4314-0.2900 0.0000 (  1550 PWs)   bands (ev):

   -70.4212 -37.3876 -37.3866 -37.3860  -7.5705   0.4967   1.6137   2.4675
     9.0748   9.6369  10.5012  12.0368

     occupation numbers 
     1.0000   1.0000   1.0000   1.0000   1.0000   1.0000   1.0000   1.0000
     0.0000   0.0000   0.0000   0.0000

          k = 0.0707 0.0707 0.4999 (  1565 PWs)   bands (ev):

   -70.4212 -37.3876 -37.3864 -37.3861  -7.5700   0.5093   1.9600   2.2187
     7.5551   9.0911  11.9310  13.2190

     occupation numbers 
     1.0000   1.0000   1.0000   1.0000   1.0000   1.0000   1.0000   1.0000
     0.0000   0.0000   0.0000   0.0000

          k = 0.7200-0.5785-0.1428 (  1560 PWs)   bands (ev):

   -70.4212 -37.3879 -37.3866 -37.3863  -7.4522   0.3604   1.7903   1.9916
     7.4390   9.1526  12.1334  13.8030

     occupation numbers 
     1.0000   1.0000   1.0000   1.0000   1.0000   1.0000   1.0000   1.0000
     0.0000   0.0000   0.0000   0.0000

          k = 0.6478-0.5064-0.0714 (  1562 PWs)   bands (ev):

   -70.4212 -37.3878 -37.3868 -37.3865  -7.3766   0.4063   1.3851   1.8988
     7.6901   9.7222  11.9700  13.0284

     occupation numbers 
     1.0000   1.0000   1.0000   1.0000   1.0000   1.0000   1.0000   1.0000
     0.0000   0.0000   0.0000   0.0000

          k = 0.5757-0.4343-0.0000 (  1563 PWs)   bands (ev):

   -70.4212 -37.3877 -37.3871 -37.3864  -7.3760   0.5884   0.9842   2.0417
     8.1347  10.2651  11.7061  12.1898

     occupation numbers 
     1.0000   1.0000   1.0000   1.0000   1.0000   1.0000   1.0000   1.0000
     0.0000   0.0000   0.0000   0.0000

          k = 0.0707 0.0707-0.7856 (  1569 PWs)   bands (ev):

   -70.4212 -37.3881 -37.3866 -37.3863  -7.3889   0.2221   1.7093   2.0649
     7.0022   8.8018  13.3401  14.3056

     occupation numbers 
     1.0000   1.0000   1.0000   1.0000   1.0000   1.0000   1.0000   1.0000
     0.0000   0.0000   0.0000   0.0000

          k =-0.0014 0.1428-0.7142 (  1564 PWs)   bands (ev):

   -70.4212 -37.3881 -37.3867 -37.3864  -7.3598   0.2459   1.6935   1.8464
     7.1524   9.0128  13.2959  13.5945

     occupation numbers 
     1.0000   1.0000   1.0000   1.0000   1.0000   1.0000   1.0000   1.0000
     0.0000   0.0000   0.0000   0.0000

          k = 0.1414 0.1414-0.1428 (  1540 PWs)   bands (ev):

   -70.4213 -37.3864 -37.3856 -37.3855  -8.0814   1.5503   2.8675   2.9015
     7.5950  10.5280  11.0659  11.2364

     occupation numbers 
     1.0000   1.0000   1.0000   1.0000   1.0000   1.0000   1.0000   1.0000
     0.0000   0.0000   0.0000   0.0000

          k = 0.0693 0.2136-0.0714 (  1535 PWs)   bands (ev):

   -70.4213 -37.3862 -37.3857 -37.3856  -8.0945   1.7911   2.7474   2.8052
     7.6426  10.2097  11.2247  11.3955

     occupation numbers 
     1.0000   1.0000   1.0000   1.0000   1.0000   1.0000   1.0000   1.0000
     0.0000   0.0000   0.0000   0.0000

          k =-0.0029 0.2857-0.0000 (  1535 PWs)   bands (ev):

   -70.4213 -37.3864 -37.3858 -37.3858  -8.0039   1.6235   2.5768   2.5780
     7.9310   9.7445  11.3575  11.8775

     occupation numbers 
     1.0000   1.0000   1.0000   1.0000   1.0000   1.0000   1.0000   1.0000
     0.0000   0.0000   0.0000   0.0000

          k =-0.0750 0.3578 0.0714 (  1550 PWs)   bands (ev):

   -70.4213 -37.3870 -37.3860 -37.3860  -7.8349   1.0599   2.4081   2.4295
     8.1587   9.5903  10.8736  12.1453

     occupation numbers 
     1.0000   1.0000   1.0000   1.0000   1.0000   1.0000   1.0000   1.0000
     0.0000   0.0000   0.0000   0.0000

          k =-0.1471 0.4300 0.1428 (  1552 PWs)   bands (ev):

   -70.4212 -37.3876 -37.3862 -37.3861  -7.6428   0.4989   2.1438   2.3527
     8.2601   9.7904  10.7450  11.9336

     occupation numbers 
     1.0000   1.0000   1.0000   1.0000   1.0000   1.0000   1.0000   1.0000
     0.0000   0.0000   0.0000   0.0000

          k = 0.5021-0.2193-0.4999 (  1553 PWs)   bands (ev):

   -70.4212 -37.3880 -37.3864 -37.3861  -7.5050   0.1571   1.8584   2.3698
     8.3855   9.7463  11.3959  11.6047

     occupation numbers 
     1.0000   1.0000   1.0000   1.0000   1.0000   1.0000   1.0000   1.0000
     0.0000   0.0000   0.0000   0.0000

          k = 0.4300-0.1471-0.4285 (  1547 PWs)   bands (ev):

   -70.4212 -37.3879 -37.3866 -37.3860  -7.4885   0.1356   1.6762   2.4746
     8.6924   9.6187  11.3965  11.7983

     occupation numbers 
     1.0000   1.0000   1.0000   1.0000   1.0000   1.0000   1.0000   1.0000
     0.0000   0.0000   0.0000   0.0000

          k = 0.3578-0.0750-0.3571 (  1547 PWs)   bands (ev):

   -70.4212 -37.3876 -37.3865 -37.3859  -7.6018   0.4087   1.6989   2.6360
     9.1343   9.5830  11.1425  11.3920

     occupation numbers 
     1.0000   1.0000   1.0000   1.0000   1.0000   1.0000   1.0000   1.0000
     0.0000   0.0000   0.0000   0.0000

          k = 0.2857-0.0029-0.2857 (  1550 PWs)   bands (ev):

   -70.4213 -37.3871 -37.3862 -37.3857  -7.7879   0.8103   2.0113   2.7991
     8.9040  10.0288  10.6201  11.4772

     occupation numbers 
     1.0000   1.0000   1.0000   1.0000   1.0000   1.0000   1.0000   1.0000
     0.0000   0.0000   0.0000   0.0000

          k = 0.2136 0.0693-0.2143 (  1542 PWs)   bands (ev):

   -70.4213 -37.3868 -37.3858 -37.3856  -7.9683   1.1953   2.5336   2.8955
     8.1082  10.3841  10.9879  11.2291

     occupation numbers 
     1.0000   1.0000   1.0000   1.0000   1.0000   1.0000   1.0000   1.0000
     0.0000   0.0000   0.0000   0.0000

          k = 0.1414 0.1414-0.0000 (  1530 PWs)   bands (ev):

   -70.4213 -37.3861 -37.3857 -37.3854  -8.1492   1.9992   2.7216   2.9931
     7.3838  10.4195  11.1140  11.2432

     occupation numbers 
     1.0000   1.0000   1.0000   1.0000   1.0000   1.0000   1.0000   1.0000
     0.0000   0.0000   0.0000   0.0000

          k =-0.0029 0.2857 0.1428 (  1545 PWs)   bands (ev):

   -70.4213 -37.3867 -37.3859 -37.3857  -7.9451   1.2958   2.4068   2.7514
     8.2216   9.9857  10.8282  11.7535

     occupation numbers 
     1.0000   1.0000   1.0000   1.0000   1.0000   1.0000   1.0000   1.0000
     0.0000   0.0000   0.0000   0.0000

          k =-0.0750 0.3578 0.2143 (  1550 PWs)   bands (ev):

   -70.4213 -37.3873 -37.3862 -37.3858  -7.7459   0.6956   2.1201   2.6340
     8.6670   9.9279  10.5073  11.6803

     occupation numbers 
     1.0000   1.0000   1.0000   1.0000   1.0000   1.0000   1.0000   1.0000
     0.0000   0.0000   0.0000   0.0000

          k = 0.5743-0.2914-0.4285 (  1544 PWs)   bands (ev):

   -70.4212 -37.3878 -37.3863 -37.3860  -7.5705   0.2138   1.9755   2.4942
     8.7987   9.5117  11.2138  11.4568

     occupation numbers 
     1.0000   1.0000   1.0000   1.0000   1.0000   1.0000   1.0000   1.0000
     0.0000   0.0000   0.0000   0.0000

          k = 0.5021-0.2193-0.3571 (  1546 PWs)   bands (ev):

   -70.4212 -37.3881 -37.3864 -37.3861  -7.4995   0.0305   1.9358   2.4317
     8.8512   9.2984  11.2895  11.8091

     occupation numbers 
     1.0000   1.0000   1.0000   1.0000   1.0000   1.0000   1.0000   1.0000
     0.0000   0.0000   0.0000   0.0000

          k = 0.1414 0.1414 0.2857 (  1543 PWs)   bands (ev):

   -70.4213 -37.3870 -37.3858 -37.3857  -7.8981   0.9204   2.6737   2.6743
     8.2162  10.2190  10.7651  11.4523

     occupation numbers 
     1.0000   1.0000   1.0000   1.0000   1.0000   1.0000   1.0000   1.0000
     0.0000   0.0000   0.0000   0.0000

          k = 0.0693 0.2136 0.3571 (  1551 PWs)   bands (ev):

   -70.4213 -37.3873 -37.3861 -37.3858  -7.7554   0.6769   2.1473   2.6511
     8.7278   9.8959  10.5040  11.7297

     occupation numbers 
     1.0000   1.0000   1.0000   1.0000   1.0000   1.0000   1.0000   1.0000
     0.0000   0.0000   0.0000   0.0000

          k = 0.7185-0.4357-0.2857 (  1554 PWs)   bands (ev):

   -70.4212 -37.3875 -37.3866 -37.3860  -7.5871   0.5154   1.5984   2.4878
     9.0973   9.7078  10.5283  12.1221

     occupation numbers 
     1.0000   1.0000   1.0000   1.0000   1.0000   1.0000   1.0000   1.0000
     0.0000   0.0000   0.0000   0.0000

          k = 0.6464-0.3636-0.2143 (  1550 PWs)   bands (ev):

   -70.4212 -37.3877 -37.3868 -37.3861  -7.4587   0.3837   1.3280   2.2993
     8.7591   9.7489  11.3261  12.0934

     occupation numbers 
     1.0000   1.0000   1.0000   1.0000   1.0000   1.0000   1.0000   1.0000
     0.0000   0.0000   0.0000   0.0000

          k = 0.5743-0.2914-0.1428 (  1555 PWs)   bands (ev):

   -70.4212 -37.3878 -37.3868 -37.3862  -7.4292   0.3046   1.4268   2.1884
     8.4120   9.8493  11.2987  12.2731

     occupation numbers 
     1.0000   1.0000   1.0000   1.0000   1.0000   1.0000   1.0000   1.0000
     0.0000   0.0000   0.0000   0.0000

          k = 0.5021-0.2193-0.0714 (  1550 PWs)   bands (ev):

   -70.4212 -37.3878 -37.3865 -37.3862  -7.5138   0.4077   1.7254   2.2153
     8.2092   9.7899  10.7575  12.5950

     occupation numbers 
     1.0000   1.0000   1.0000   1.0000   1.0000   1.0000   1.0000   1.0000
     0.0000   0.0000   0.0000   0.0000

          k = 0.4300-0.1471-0.0000 (  1558 PWs)   bands (ev):

   -70.4212 -37.3874 -37.3862 -37.3861  -7.6716   0.6958   2.0669   2.3493
     8.1190   9.5008  10.8320  12.7235

     occupation numbers 
     1.0000   1.0000   1.0000   1.0000   1.0000   1.0000   1.0000   1.0000
     0.0000   0.0000   0.0000   0.0000

          k = 0.1414 0.1414 0.4285 (  1552 PWs)   bands (ev):

   -70.4212 -37.3875 -37.3862 -37.3860  -7.6589   0.4881   2.1285   2.4149
     8.3309   9.7550  10.7629  12.0330

     occupation numbers 
     1.0000   1.0000   1.0000   1.0000   1.0000   1.0000   1.0000   1.0000
     0.0000   0.0000   0.0000   0.0000

          k = 0.7907-0.5078-0.2143 (  1554 PWs)   bands (ev):

   -70.4212 -37.3877 -37.3865 -37.3861  -7.5309   0.4125   1.7197   2.2446
     8.2669   9.7904  10.8184  12.6732

     occupation numbers 
     1.0000   1.0000   1.0000   1.0000   1.0000   1.0000   1.0000   1.0000
     0.0000   0.0000   0.0000   0.0000

          k = 0.7185-0.4357-0.1428 (  1558 PWs)   bands (ev):

   -70.4212 -37.3877 -37.3869 -37.3863  -7.4195   0.4850   1.3184   1.9710
     8.3866  10.2790  10.6367  12.7185

     occupation numbers 
     1.0000   1.0000   1.0000   1.0000   1.0000   1.0000   1.0000   1.0000
     0.0000   0.0000   0.0000   0.0000

          k = 0.6464-0.3636-0.0714 (  1566 PWs)   bands (ev):

   -70.4212 -37.3877 -37.3870 -37.3864  -7.3714   0.5794   1.1106   1.8387
     8.4361  10.3291  11.1340  12.0136

     occupation numbers 
     1.0000   1.0000   1.0000   1.0000   1.0000   1.0000   1.0000   1.0000
     0.0000   0.0000   0.0000   0.0000

          k = 0.5743-0.2914 0.0000 (  1562 PWs)   bands (ev):

   -70.4212 -37.3878 -37.3869 -37.3863  -7.4084   0.4709   1.3251   1.9641
     8.3683  10.2567  10.5315  12.7752

     occupation numbers 
     1.0000   1.0000   1.0000   1.0000   1.0000   1.0000   1.0000   1.0000
     0.0000   0.0000   0.0000   0.0000

          k = 0.1414 0.1414-0.8570 (  1558 PWs)   bands (ev):

   -70.4212 -37.3878 -37.3867 -37.3862  -7.4538   0.3354   1.5395   2.2199
     7.7051   9.5106  11.8907  12.9151

     occupation numbers 
     1.0000   1.0000   1.0000   1.0000   1.0000   1.0000   1.0000   1.0000
     0.0000   0.0000   0.0000   0.0000

          k = 0.0693 0.2136-0.7856 (  1562 PWs)   bands (ev):

   -70.4212 -37.3879 -37.3868 -37.3863  -7.3859   0.3935   1.3444   1.9837
     7.7504   9.6272  11.9751  13.0767

     occupation numbers 
     1.0000   1.0000   1.0000   1.0000   1.0000   1.0000   1.0000   1.0000
     0.0000   0.0000   0.0000   0.0000

          k =-0.0029 0.2857-0.7142 (  1560 PWs)   bands (ev):

   -70.4212 -37.3877 -37.3869 -37.3865  -7.3544   0.5562   1.2426   1.6580
     8.1318  10.2098  11.7639  11.7769

     occupation numbers 
     1.0000   1.0000   1.0000   1.0000   1.0000   1.0000   1.0000   1.0000
     0.0000   0.0000   0.0000   0.0000

          k = 0.1414 0.1414-0.7142 (  1566 PWs)   bands (ev):

   -70.4212 -37.3879 -37.3869 -37.3862  -7.3725   0.3509   1.2502   2.1486
     7.4327   9.4051  12.9026  13.5885

     occupation numbers 
     1.0000   1.0000   1.0000   1.0000   1.0000   1.0000   1.0000   1.0000
     0.0000   0.0000   0.0000   0.0000

          k = 0.2121 0.2121-0.2143 (  1552 PWs)   bands (ev):

   -70.4213 -37.3872 -37.3857 -37.3856  -7.8709   0.6523   2.7743   2.8000
     8.0205  10.8196  10.8971  11.0269

     occupation numbers 
     1.0000   1.0000   1.0000   1.0000   1.0000   1.0000   1.0000   1.0000
     0.0000   0.0000   0.0000   0.0000

          k = 0.1400 0.2843-0.1428 (  1547 PWs)   bands (ev):

   -70.4213 -37.3870 -37.3858 -37.3857  -7.9015   0.9378   2.6404   2.6840
     8.2174  10.3004  10.8347  11.3562

     occupation numbers 
     1.0000   1.0000   1.0000   1.0000   1.0000   1.0000   1.0000   1.0000
     0.0000   0.0000   0.0000   0.0000

          k = 0.0679 0.3564-0.0714 (  1546 PWs)   bands (ev):

   -70.4213 -37.3869 -37.3860 -37.3859  -7.8451   1.0731   2.3914   2.4411
     8.1945   9.6073  10.9769  12.1467

     occupation numbers 
     1.0000   1.0000   1.0000   1.0000   1.0000   1.0000   1.0000   1.0000
     0.0000   0.0000   0.0000   0.0000

          k =-0.0043 0.4285-0.0000 (  1545 PWs)   bands (ev):

   -70.4212 -37.3872 -37.3861 -37.3861  -7.7181   0.8417   2.2575   2.2581
     7.7365   9.1353  11.7239  12.9581

     occupation numbers 
     1.0000   1.0000   1.0000   1.0000   1.0000   1.0000   1.0000   1.0000
     0.0000   0.0000   0.0000   0.0000

          k =-0.0764 0.5007 0.0714 (  1560 PWs)   bands (ev):

   -70.4212 -37.3877 -37.3863 -37.3863  -7.5628   0.5044   2.0188   2.1539
     7.5347   9.0996  11.8677  13.1339

     occupation numbers 
     1.0000   1.0000   1.0000   1.0000   1.0000   1.0000   1.0000   1.0000
     0.0000   0.0000   0.0000   0.0000

          k = 0.5728-0.1486-0.5713 (  1556 PWs)   bands (ev):

   -70.4212 -37.3879 -37.3866 -37.3863  -7.4401   0.3336   1.5742   2.1563
     7.6553   9.5581  11.8266  12.8066

     occupation numbers 
     1.0000   1.0000   1.0000   1.0000   1.0000   1.0000   1.0000   1.0000
     0.0000   0.0000   0.0000   0.0000

          k = 0.5007-0.0764-0.4999 (  1557 PWs)   bands (ev):

   -70.4212 -37.3878 -37.3869 -37.3862  -7.4050   0.4082   1.1429   2.2641
     8.0064  10.1233  11.8852  12.4151

     occupation numbers 
     1.0000   1.0000   1.0000   1.0000   1.0000   1.0000   1.0000   1.0000
     0.0000   0.0000   0.0000   0.0000

          k = 0.4285-0.0043-0.4285 (  1551 PWs)   bands (ev):

   -70.4212 -37.3876 -37.3870 -37.3861  -7.4736   0.4791   1.1470   2.4481
     8.5826  10.2139  11.3953  11.9971

     occupation numbers 
     1.0000   1.0000   1.0000   1.0000   1.0000   1.0000   1.0000   1.0000
     0.0000   0.0000   0.0000   0.0000

          k = 0.3564 0.0679-0.3571 (  1552 PWs)   bands (ev):

   -70.4212 -37.3876 -37.3865 -37.3859  -7.6125   0.3932   1.7274   2.6487
     9.1919   9.6325  11.0674  11.4250

     occupation numbers 
     1.0000   1.0000   1.0000   1.0000   1.0000   1.0000   1.0000   1.0000
     0.0000   0.0000   0.0000   0.0000

          k = 0.2843 0.1400-0.2857 (  1550 PWs)   bands (ev):

   -70.4213 -37.3875 -37.3859 -37.3857  -7.7631   0.4426   2.4058   2.7827
     8.4354  10.3256  10.9510  11.0848

     occupation numbers 
     1.0000   1.0000   1.0000   1.0000   1.0000   1.0000   1.0000   1.0000
     0.0000   0.0000   0.0000   0.0000

          k = 0.2121 0.2121-0.0714 (  1545 PWs)   bands (ev):

   -70.4213 -37.3867 -37.3859 -37.3855  -7.9745   1.2095   2.5011   2.9182
     8.1318  10.4022  10.9059  11.3407

     occupation numbers 
     1.0000   1.0000   1.0000   1.0000   1.0000   1.0000   1.0000   1.0000
     0.0000   0.0000   0.0000   0.0000

          k = 0.1400 0.2843 0.0000 (  1549 PWs)   bands (ev):

   -70.4213 -37.3866 -37.3859 -37.3856  -7.9538   1.3034   2.3913   2.7696
     8.2601   9.9913  10.8353  11.8169

     occupation numbers 
     1.0000   1.0000   1.0000   1.0000   1.0000   1.0000   1.0000   1.0000
     0.0000   0.0000   0.0000   0.0000

          k =-0.0043 0.4285 0.1428 (  1553 PWs)   bands (ev):

   -70.4212 -37.3873 -37.3863 -37.3861  -7.6814   0.7151   2.0534   2.3497
     8.1479   9.5196  10.9074  12.7627

     occupation numbers 
     1.0000   1.0000   1.0000   1.0000   1.0000   1.0000   1.0000   1.0000
     0.0000   0.0000   0.0000   0.0000

          k = 0.6450-0.2207-0.4999 (  1555 PWs)   bands (ev):

   -70.4212 -37.3877 -37.3865 -37.3862  -7.5212   0.4180   1.7332   2.2033
     8.2272   9.8116  10.8156  12.5763

     occupation numbers 
     1.0000   1.0000   1.0000   1.0000   1.0000   1.0000   1.0000   1.0000
     0.0000   0.0000   0.0000   0.0000

          k = 0.5728-0.1486-0.4285 (  1556 PWs)   bands (ev):

   -70.4212 -37.3879 -37.3867 -37.3862  -7.4329   0.2973   1.4534   2.1750
     8.4169   9.8975  11.3240  12.2270

     occupation numbers 
     1.0000   1.0000   1.0000   1.0000   1.0000   1.0000   1.0000   1.0000
     0.0000   0.0000   0.0000   0.0000

          k = 0.5007-0.0764-0.3571 (  1551 PWs)   bands (ev):

   -70.4212 -37.3877 -37.3868 -37.3861  -7.4593   0.3691   1.3512   2.2950
     8.7576   9.8023  11.2505  12.0749

     occupation numbers 
     1.0000   1.0000   1.0000   1.0000   1.0000   1.0000   1.0000   1.0000
     0.0000   0.0000   0.0000   0.0000

          k = 0.4285-0.0043-0.2857 (  1554 PWs)   bands (ev):

   -70.4212 -37.3875 -37.3866 -37.3860  -7.5867   0.5160   1.5970   2.4887
     9.1036   9.7064  10.5161  12.1208

     occupation numbers 
     1.0000   1.0000   1.0000   1.0000   1.0000   1.0000   1.0000   1.0000
     0.0000   0.0000   0.0000   0.0000

          k = 0.3564 0.0679-0.2143 (  1552 PWs)   bands (ev):

   -70.4213 -37.3873 -37.3861 -37.3858  -7.7562   0.6908   2.1346   2.6437
     8.7036   9.9490  10.5571  11.7012

     occupation numbers 
     1.0000   1.0000   1.0000   1.0000   1.0000   1.0000   1.0000   1.0000
     0.0000   0.0000   0.0000   0.0000

          k = 0.2121 0.2121 0.3571 (  1552 PWs)   bands (ev):

   -70.4213 -37.3877 -37.3859 -37.3858  -7.7009   0.2349   2.5315   2.6122
     8.3869  10.0556  11.1412  11.1560

     occupation numbers 
     1.0000   1.0000   1.0000   1.0000   1.0000   1.0000   1.0000   1.0000
     0.0000   0.0000   0.0000   0.0000

          k = 0.8614-0.4371-0.2857 (  1550 PWs)   bands (ev):

   -70.4212 -37.3878 -37.3863 -37.3859  -7.5904   0.1983   2.0031   2.5295
     8.9021   9.5338  11.1634  11.4992

     occupation numbers 
     1.0000   1.0000   1.0000   1.0000   1.0000   1.0000   1.0000   1.0000
     0.0000   0.0000   0.0000   0.0000

          k = 0.7892-0.3650-0.2143 (  1547 PWs)   bands (ev):

   -70.4212 -37.3877 -37.3868 -37.3861  -7.4701   0.3658   1.3594   2.3106
     8.7837   9.8811  11.1789  12.1298

     occupation numbers 
     1.0000   1.0000   1.0000   1.0000   1.0000   1.0000   1.0000   1.0000
     0.0000   0.0000   0.0000   0.0000

          k = 0.7171-0.2928-0.1428 (  1558 PWs)   bands (ev):

   -70.4212 -37.3877 -37.3871 -37.3863  -7.3862   0.5810   0.9805   2.0789
     8.1853  10.2331  11.7040  12.2078

     occupation numbers 
     1.0000   1.0000   1.0000   1.0000   1.0000   1.0000   1.0000   1.0000
     0.0000   0.0000   0.0000   0.0000

          k = 0.6450-0.2207-0.0714 (  1564 PWs)   bands (ev):

   -70.4212 -37.3879 -37.3868 -37.3864  -7.3755   0.3892   1.3698   1.9422
     7.7144   9.6578  11.8431  13.1490

     occupation numbers 
     1.0000   1.0000   1.0000   1.0000   1.0000   1.0000   1.0000   1.0000
     0.0000   0.0000   0.0000   0.0000

          k = 0.5728-0.1486 0.0000 (  1559 PWs)   bands (ev):

   -70.4212 -37.3879 -37.3865 -37.3864  -7.4445   0.3440   1.8084   1.9869
     7.4275   9.1320  12.0083  13.8231

     occupation numbers 
     1.0000   1.0000   1.0000   1.0000   1.0000   1.0000   1.0000   1.0000
     0.0000   0.0000   0.0000   0.0000

          k = 0.2121 0.2121-0.9284 (  1545 PWs)   bands (ev):

   -70.4212 -37.3879 -37.3864 -37.3860  -7.5290   0.1464   1.8644   2.4297
     8.4733   9.7740  11.3288  11.7246

     occupation numbers 
     1.0000   1.0000   1.0000   1.0000   1.0000   1.0000   1.0000   1.0000
     0.0000   0.0000   0.0000   0.0000

          k = 0.1400 0.2843-0.8570 (  1551 PWs)   bands (ev):

   -70.4212 -37.3878 -37.3867 -37.3861  -7.4504   0.2956   1.4407   2.2272
     8.4803   9.9286  11.2566  12.3310

     occupation numbers 
     1.0000   1.0000   1.0000   1.0000   1.0000   1.0000   1.0000   1.0000
     0.0000   0.0000   0.0000   0.0000

          k = 0.0679 0.3564-0.7856 (  1562 PWs)   bands (ev):

   -70.4212 -37.3876 -37.3870 -37.3864  -7.3833   0.5714   1.1212   1.8586
     8.4731  10.4689  11.0767  11.9191

     occupation numbers 
     1.0000   1.0000   1.0000   1.0000   1.0000   1.0000   1.0000   1.0000
     0.0000   0.0000   0.0000   0.0000

          k =-0.0043 0.4285-0.7142 (  1560 PWs)   bands (ev):

   -70.4212 -37.3877 -37.3869 -37.3865  -7.3540   0.5569   1.2431   1.6565
     8.1370  10.2043  11.6378  11.9023

     occupation numbers 
     1.0000   1.0000   1.0000   1.0000   1.0000   1.0000   1.0000   1.0000
     0.0000   0.0000   0.0000   0.0000

          k = 0.2121 0.2121-0.7856 (  1547 PWs)   bands (ev):

   -70.4212 -37.3877 -37.3869 -37.3861  -7.4226   0.4038   1.1338   2.3198
     8.0674  10.0912  11.9018  12.5335

     occupation numbers 
     1.0000   1.0000   1.0000   1.0000   1.0000   1.0000   1.0000   1.0000
     0.0000   0.0000   0.0000   0.0000

          k = 0.1400 0.2843-0.7142 (  1551 PWs)   bands (ev):

   -70.4212 -37.3876 -37.3871 -37.3862  -7.3971   0.5727   0.9762   2.1184
     8.2308  10.2113  11.7275  12.1928

     occupation numbers 
     1.0000   1.0000   1.0000   1.0000   1.0000   1.0000   1.0000   1.0000
     0.0000   0.0000   0.0000   0.0000

          k = 0.2828 0.2828-0.2857 (  1542 PWs)   bands (ev):

   -70.4213 -37.3879 -37.3858 -37.3857  -7.6836   0.0190   2.7039   2.7230
     8.0638  10.6016  10.7486  11.2837

     occupation numbers 
     1.0000   1.0000   1.0000   1.0000   1.0000   1.0000   1.0000   1.0000
     0.0000   0.0000   0.0000   0.0000

          k = 0.2107 0.3550-0.2143 (  1557 PWs)   bands (ev):

   -70.4213 -37.3877 -37.3859 -37.3858  -7.7036   0.2499   2.5318   2.5882
     8.3767  10.1352  11.0573  11.2606

     occupation numbers 
     1.0000   1.0000   1.0000   1.0000   1.0000   1.0000   1.0000   1.0000
     0.0000   0.0000   0.0000   0.0000

          k = 0.1386 0.4271-0.1428 (  1559 PWs)   bands (ev):

   -70.4212 -37.3875 -37.3862 -37.3860  -7.6624   0.5179   2.1267   2.3734
     8.3112   9.8371  10.8808  11.9672

     occupation numbers 
     1.0000   1.0000   1.0000   1.0000   1.0000   1.0000   1.0000   1.0000
     0.0000   0.0000   0.0000   0.0000

          k = 0.0664 0.4993-0.0714 (  1556 PWs)   bands (ev):

   -70.4212 -37.3876 -37.3863 -37.3862  -7.5721   0.5276   1.9904   2.1624
     7.5597   9.1184  12.0164  13.1804

     occupation numbers 
     1.0000   1.0000   1.0000   1.0000   1.0000   1.0000   1.0000   1.0000
     0.0000   0.0000   0.0000   0.0000

          k =-0.0057 0.5714-0.0000 (  1561 PWs)   bands (ev):

   -70.4212 -37.3879 -37.3864 -37.3864  -7.4647   0.3145   2.0251   2.0256
     7.0011   8.6925  13.1868  14.2331

     occupation numbers 
     1.0000   1.0000   1.0000   1.0000   1.0000   1.0000   1.0000   1.0000
     0.0000   0.0000   0.0000   0.0000

          k = 0.6435-0.0779-0.6428 (  1568 PWs)   bands (ev):

   -70.4212 -37.3881 -37.3866 -37.3864  -7.3840   0.2185   1.7691   1.9988
     6.9908   8.8154  13.2644  14.2217

     occupation numbers 
     1.0000   1.0000   1.0000   1.0000   1.0000   1.0000   1.0000   1.0000
     0.0000   0.0000   0.0000   0.0000

          k = 0.5714-0.0057-0.5713 (  1558 PWs)   bands (ev):

   -70.4212 -37.3879 -37.3868 -37.3864  -7.3651   0.3567   1.2792   2.0888
     7.3987   9.4704  12.8796  13.5164

[...]

          k = 0.2107 0.3550-0.0714 (  1550 PWs)   bands (ev):

   -70.4213 -37.3872 -37.3862 -37.3858  -7.7647   0.7045   2.1153   2.6578
     8.7296   9.9772  10.5487  11.7563

     occupation numbers 
     1.0000   1.0000   1.0000   1.0000   1.0000   1.0000   1.0000   1.0000
     0.0000   0.0000   0.0000   0.0000

          k = 0.1386 0.4271-0.0000 (  1548 PWs)   bands (ev):

   -70.4212 -37.3873 -37.3863 -37.3860  -7.6912   0.7338   2.0414   2.3491
     8.1770   9.5385  10.9960  12.8010

     occupation numbers 
     1.0000   1.0000   1.0000   1.0000   1.0000   1.0000   1.0000   1.0000
     0.0000   0.0000   0.0000   0.0000

          k = 0.7157-0.1500-0.5713 (  1557 PWs)   bands (ev):

   -70.4212 -37.3879 -37.3865 -37.3864  -7.4511   0.3607   1.8012   1.9799
     7.4447   9.1444  12.1275  13.7901

     occupation numbers 
     1.0000   1.0000   1.0000   1.0000   1.0000   1.0000   1.0000   1.0000
     0.0000   0.0000   0.0000   0.0000

          k = 0.6435-0.0779-0.4999 (  1557 PWs)   bands (ev):

   -70.4212 -37.3879 -37.3868 -37.3864  -7.3783   0.3914   1.3812   1.9308
     7.7216   9.6634  11.9638  13.0249

     occupation numbers 
     1.0000   1.0000   1.0000   1.0000   1.0000   1.0000   1.0000   1.0000
     0.0000   0.0000   0.0000   0.0000

          k = 0.5714-0.0057-0.4285 (  1552 PWs)   bands (ev):

   -70.4212 -37.3877 -37.3871 -37.3863  -7.3858   0.5796   0.9813   2.0797
     8.1850  10.2357  11.7138  12.1898

     occupation numbers 
     1.0000   1.0000   1.0000   1.0000   1.0000   1.0000   1.0000   1.0000
     0.0000   0.0000   0.0000   0.0000

          k = 0.4993 0.0664-0.3571 (  1555 PWs)   bands (ev):

   -70.4212 -37.3877 -37.3868 -37.3861  -7.4687   0.3802   1.3353   2.3163
     8.7868   9.8263  11.2426  12.1520

     occupation numbers 
     1.0000   1.0000   1.0000   1.0000   1.0000   1.0000   1.0000   1.0000
     0.0000   0.0000   0.0000   0.0000

          k = 0.4271 0.1386-0.2857 (  1557 PWs)   bands (ev):

   -70.4212 -37.3877 -37.3863 -37.3860  -7.5904   0.2139   1.9825   2.5249
     8.8635   9.5735  11.2484  11.4898

     occupation numbers 
     1.0000   1.0000   1.0000   1.0000   1.0000   1.0000   1.0000   1.0000
     0.0000   0.0000   0.0000   0.0000

          k = 0.2828 0.2828-0.0000 (  1550 PWs)   bands (ev):

   -70.4213 -37.3871 -37.3863 -37.3856  -7.8028   0.8251   1.9902   2.8284
     8.9633  10.0404  10.5964  11.5917

     occupation numbers 
     1.0000   1.0000   1.0000   1.0000   1.0000   1.0000   1.0000   1.0000
     0.0000   0.0000   0.0000   0.0000

          k = 0.7878-0.2221-0.4999 (  1557 PWs)   bands (ev):

   -70.4212 -37.3876 -37.3865 -37.3862  -7.5305   0.4344   1.7006   2.2317
     8.2475   9.8285  10.8599  12.6940

     occupation numbers 
     1.0000   1.0000   1.0000   1.0000   1.0000   1.0000   1.0000   1.0000
     0.0000   0.0000   0.0000   0.0000

          k = 0.7157-0.1500-0.4285 (  1552 PWs)   bands (ev):

   -70.4212 -37.3877 -37.3869 -37.3863  -7.4188   0.4849   1.3179   1.9717
     8.3917  10.2799  10.6238  12.7161

     occupation numbers 
     1.0000   1.0000   1.0000   1.0000   1.0000   1.0000   1.0000   1.0000
     0.0000   0.0000   0.0000   0.0000

          k = 0.6435-0.0779-0.3571 (  1564 PWs)   bands (ev):

   -70.4212 -37.3877 -37.3870 -37.3864  -7.3748   0.5588   1.1424   1.8359
     8.4520  10.3886  11.1210  11.9398

     occupation numbers 
     1.0000   1.0000   1.0000   1.0000   1.0000   1.0000   1.0000   1.0000
     0.0000   0.0000   0.0000   0.0000

          k = 0.2828 0.2828-0.9998 (  1539 PWs)   bands (ev):

   -70.4212 -37.3881 -37.3860 -37.3858  -7.5862  -0.1095   2.4082   2.6176
     8.4072   9.8874  10.9238  11.7016

     occupation numbers 
     1.0000   1.0000   1.0000   1.0000   1.0000   1.0000   1.0000   1.0000
     0.0000   0.0000   0.0000   0.0000

          k = 0.2107 0.3550-0.9284 (  1547 PWs)   bands (ev):

   -70.4212 -37.3880 -37.3863 -37.3860  -7.5263   0.0263   1.9513   2.4759
     8.9499   9.3566  11.3778  11.7632

     occupation numbers 
     1.0000   1.0000   1.0000   1.0000   1.0000   1.0000   1.0000   1.0000
     0.0000   0.0000   0.0000   0.0000

          k = 0.1386 0.4271-0.8570 (  1552 PWs)   bands (ev):

   -70.4212 -37.3877 -37.3867 -37.3862  -7.4504   0.3128   1.4404   2.1989
     8.4536   9.9846  11.3581  12.2773

     occupation numbers 
     1.0000   1.0000   1.0000   1.0000   1.0000   1.0000   1.0000   1.0000
     0.0000   0.0000   0.0000   0.0000

          k = 0.0664 0.4993-0.7856 (  1558 PWs)   bands (ev):

   -70.4212 -37.3878 -37.3868 -37.3864  -7.3854   0.4115   1.3599   1.9381
     7.7364   9.6783  12.1030  12.9458

     occupation numbers 
     1.0000   1.0000   1.0000   1.0000   1.0000   1.0000   1.0000   1.0000
     0.0000   0.0000   0.0000   0.0000

          k =-0.0057 0.5714-0.7142 (  1563 PWs)   bands (ev):

   -70.4212 -37.3880 -37.3866 -37.3865  -7.3587   0.2462   1.7134   1.8254
     7.1584   9.0051  13.2362  13.6517

     occupation numbers 
     1.0000   1.0000   1.0000   1.0000   1.0000   1.0000   1.0000   1.0000
     0.0000   0.0000   0.0000   0.0000

          k = 0.2828 0.2828-0.8570 (  1545 PWs)   bands (ev):

   -70.4212 -37.3879 -37.3865 -37.3859  -7.5154   0.1288   1.6898   2.5266
     8.7785   9.6755  11.5326  11.7273

     occupation numbers 
     1.0000   1.0000   1.0000   1.0000   1.0000   1.0000   1.0000   1.0000
     0.0000   0.0000   0.0000   0.0000

          k = 0.2107 0.3550-0.7856 (  1555 PWs)   bands (ev):

   -70.4212 -37.3876 -37.3868 -37.3860  -7.4794   0.3782   1.3399   2.3350
     8.8154   9.8641  11.2525  12.1631

     occupation numbers 
     1.0000   1.0000   1.0000   1.0000   1.0000   1.0000   1.0000   1.0000
     0.0000   0.0000   0.0000   0.0000

          k = 0.1386 0.4271-0.7142 (  1558 PWs)   bands (ev):

   -70.4212 -37.3876 -37.3869 -37.3863  -7.4299   0.5000   1.3104   1.9781
     8.4149  10.3025  10.7281  12.6492

     occupation numbers 
     1.0000   1.0000   1.0000   1.0000   1.0000   1.0000   1.0000   1.0000
     0.0000   0.0000   0.0000   0.0000

          k = 0.2828 0.2828-0.7142 (  1554 PWs)   bands (ev):

   -70.4212 -37.3875 -37.3870 -37.3860  -7.4905   0.4855   1.1352   2.4907
     8.6334  10.2199  11.4075  12.1039

     occupation numbers 
     1.0000   1.0000   1.0000   1.0000   1.0000   1.0000   1.0000   1.0000
     0.0000   0.0000   0.0000   0.0000

          k =-0.3536-0.3536 0.3571 (  1528 PWs)   bands (ev):

   -70.4212 -37.3881 -37.3859 -37.3858  -7.6073  -0.2106   2.6780   2.6947
     8.0429  10.4925  10.6391  11.4363

     occupation numbers 
     1.0000   1.0000   1.0000   1.0000   1.0000   1.0000   1.0000   1.0000
     0.0000   0.0000   0.0000   0.0000

          k =-0.4257-0.2814 0.4285 (  1542 PWs)   bands (ev):

   -70.4212 -37.3880 -37.3860 -37.3859  -7.5863  -0.1032   2.4143   2.5981
     8.3993   9.9521  10.8261  11.7756

     occupation numbers 
     1.0000   1.0000   1.0000   1.0000   1.0000   1.0000   1.0000   1.0000
     0.0000   0.0000   0.0000   0.0000

          k =-0.4978-0.2093 0.4999 (  1554 PWs)   bands (ev):

   -70.4212 -37.3878 -37.3864 -37.3861  -7.5290   0.1691   1.8595   2.3939
     8.4409   9.8492  11.4602  11.6564

     occupation numbers 
     1.0000   1.0000   1.0000   1.0000   1.0000   1.0000   1.0000   1.0000
     0.0000   0.0000   0.0000   0.0000

          k =-0.5700-0.1371 0.5713 (  1552 PWs)   bands (ev):

   -70.4212 -37.3878 -37.3867 -37.3863  -7.4534   0.3640   1.5436   2.1680
     7.6843   9.5875  11.9847  12.8784

     occupation numbers 
     1.0000   1.0000   1.0000   1.0000   1.0000   1.0000   1.0000   1.0000
     0.0000   0.0000   0.0000   0.0000

          k =-0.6421-0.0650 0.6428 (  1558 PWs)   bands (ev):

   -70.4212 -37.3880 -37.3866 -37.3864  -7.3878   0.2299   1.7554   2.0018
     7.0002   8.8230  13.3986  14.2878

     occupation numbers 
     1.0000   1.0000   1.0000   1.0000   1.0000   1.0000   1.0000   1.0000
     0.0000   0.0000   0.0000   0.0000

          k = 0.0071-0.7142 0.0000 (  1560 PWs)   bands (ev):

   -70.4212 -37.3882 -37.3865 -37.3865  -7.3616   0.1268   1.9413   1.9419
     6.6984   8.5344  14.0490  15.1987

     occupation numbers 
     1.0000   1.0000   1.0000   1.0000   1.0000   1.0000   1.0000   1.0000
     0.0000   0.0000   0.0000   0.0000

          k =-0.3536-0.3536 0.4999 (  1542 PWs)   bands (ev):

   -70.4212 -37.3880 -37.3861 -37.3858  -7.6140  -0.0272   2.3481   2.6878
     8.4425   9.9798  10.8863  11.6665

     occupation numbers 
     1.0000   1.0000   1.0000   1.0000   1.0000   1.0000   1.0000   1.0000
     0.0000   0.0000   0.0000   0.0000

          k =-0.4257-0.2814 0.5713 (  1550 PWs)   bands (ev):

   -70.4212 -37.3877 -37.3863 -37.3859  -7.5967   0.2185   1.9804   2.5313
     8.8735   9.5909  11.2429  11.5458

     occupation numbers 
     1.0000   1.0000   1.0000   1.0000   1.0000   1.0000   1.0000   1.0000
     0.0000   0.0000   0.0000   0.0000

          k =-0.4978-0.2093 0.6428 (  1556 PWs)   bands (ev):

   -70.4212 -37.3876 -37.3865 -37.3861  -7.5381   0.4442   1.7088   2.2196
     8.2658   9.8504  10.9299  12.6641

     occupation numbers 
     1.0000   1.0000   1.0000   1.0000   1.0000   1.0000   1.0000   1.0000
     0.0000   0.0000   0.0000   0.0000

          k =-0.5700-0.1371 0.7142 (  1556 PWs)   bands (ev):

   -70.4212 -37.3878 -37.3865 -37.3864  -7.4579   0.3780   1.7952   1.9708
     7.4623   9.1573  12.2610  13.7648

     occupation numbers 
     1.0000   1.0000   1.0000   1.0000   1.0000   1.0000   1.0000   1.0000
     0.0000   0.0000   0.0000   0.0000

          k = 0.0071-0.7142 0.1428 (  1566 PWs)   bands (ev):

   -70.4212 -37.3881 -37.3866 -37.3865  -7.3585   0.2456   1.7147   1.8249
     7.1581   9.0047  13.2889  13.5913

     occupation numbers 
     1.0000   1.0000   1.0000   1.0000   1.0000   1.0000   1.0000   1.0000
     0.0000   0.0000   0.0000   0.0000

          k =-0.0650-0.6421 0.2143 (  1559 PWs)   bands (ev):

   -70.4212 -37.3878 -37.3868 -37.3864  -7.3821   0.4077   1.3500   1.9501
     7.7283   9.6717  11.9729  13.0734

     occupation numbers 
     1.0000   1.0000   1.0000   1.0000   1.0000   1.0000   1.0000   1.0000
     0.0000   0.0000   0.0000   0.0000

          k =-0.1371-0.5700 0.2857 (  1553 PWs)   bands (ev):

   -70.4212 -37.3877 -37.3868 -37.3862  -7.4461   0.3201   1.4140   2.2125
     8.4484   9.9345  11.3262  12.3336

     occupation numbers 
     1.0000   1.0000   1.0000   1.0000   1.0000   1.0000   1.0000   1.0000
     0.0000   0.0000   0.0000   0.0000

          k =-0.2093-0.4978 0.3571 (  1536 PWs)   bands (ev):

   -70.4212 -37.3879 -37.3863 -37.3860  -7.5234   0.0339   1.9355   2.4743
     8.9327   9.3602  11.3440  11.8109

     occupation numbers 
     1.0000   1.0000   1.0000   1.0000   1.0000   1.0000   1.0000   1.0000
     0.0000   0.0000   0.0000   0.0000

          k =-0.3536-0.3536 0.6428 (  1556 PWs)   bands (ev):

   -70.4212 -37.3875 -37.3865 -37.3858  -7.6249   0.4107   1.7018   2.6767
     9.2238   9.6203  11.1097  11.5223

     occupation numbers 
     1.0000   1.0000   1.0000   1.0000   1.0000   1.0000   1.0000   1.0000
     0.0000   0.0000   0.0000   0.0000

          k =-0.4257-0.2814 0.7142 (  1553 PWs)   bands (ev):

   -70.4212 -37.3874 -37.3866 -37.3859  -7.6031   0.5340   1.5808   2.5112
     9.1318   9.7856  10.5318  12.2069

     occupation numbers 
     1.0000   1.0000   1.0000   1.0000   1.0000   1.0000   1.0000   1.0000
     0.0000   0.0000   0.0000   0.0000

          k = 0.0071-0.7142 0.2857 (  1566 PWs)   bands (ev):

   -70.4212 -37.3877 -37.3869 -37.3865  -7.3535   0.5543   1.2458   1.6568
     8.1369  10.2031  11.7644  11.7690

     occupation numbers 
     1.0000   1.0000   1.0000   1.0000   1.0000   1.0000   1.0000   1.0000
     0.0000   0.0000   0.0000   0.0000

          k =-0.0650-0.6421 0.3571 (  1556 PWs)   bands (ev):

   -70.4212 -37.3876 -37.3870 -37.3864  -7.3786   0.5897   1.0916   1.8620
     8.4611  10.4037  11.0908  11.9806

     occupation numbers 
     1.0000   1.0000   1.0000   1.0000   1.0000   1.0000   1.0000   1.0000
     0.0000   0.0000   0.0000   0.0000

     the Fermi energy is     4.7002 ev

!    total energy              =    -149.33464561 Ry
     Harris-Foulkes estimate   =    -149.33464561 Ry
     estimated scf accuracy    <          6.1E-10 Ry

     The total energy is the sum of the following terms:

     one-electron contribution =    -114.50360191 Ry
     hartree contribution      =      57.62687447 Ry
     xc contribution           =     -25.06039034 Ry
     ewald contribution        =     -67.39752783 Ry
     smearing contrib. (-TS)   =      -0.00000000 Ry

     convergence has been achieved in  11 iterations

     Forces acting on atoms (cartesian axes, Ry/au):

     atom    1 type  1   force =     0.00000000    0.00000000    0.00481845
     atom    2 type  2   force =     0.00000000    0.00000000   -0.00481845
     The non-local contrib.  to forces
     atom    1 type  1   force =     0.00000000    0.00000000    0.03501402
     atom    2 type  2   force =     0.00000000    0.00000000   -0.00438877
     The ionic contribution  to forces
     atom    1 type  1   force =    -0.00000000    0.00000000    0.21168802
     atom    2 type  2   force =    -0.00000000   -0.00000000   -0.21168802
     The local contribution  to forces
     atom    1 type  1   force =    -0.00000000   -0.00000000   -0.24187863
     atom    2 type  2   force =    -0.00000000    0.00000000    0.21082437
     The core correction contribution to forces
     atom    1 type  1   force =     0.00000000    0.00000000    0.00000000
     atom    2 type  2   force =     0.00000000    0.00000000    0.00043026
     The Hubbard contrib.    to forces
     atom    1 type  1   force =     0.00000000    0.00000000    0.00000000
     atom    2 type  2   force =     0.00000000    0.00000000    0.00000000
     The SCF correction term to forces
     atom    1 type  1   force =    -0.00000000    0.00000000   -0.00000697
     atom    2 type  2   force =    -0.00000000   -0.00000000    0.00000168

     Total force =     0.006814     Total SCF correction =     0.000007


     Computing stress (Cartesian axis) and pressure

          total   stress  (Ry/bohr**3)                   (kbar)     P=        0.22
   0.00000159  -0.00007094  -0.00000000            0.23      -10.44       -0.00
  -0.00007094   0.00000159  -0.00000000          -10.44        0.23       -0.00
   0.00000000  -0.00000000   0.00000133            0.00       -0.00        0.20

     kinetic stress (kbar)   7640.08     -6.72     -0.00
                               -6.72   7640.08     -0.00
                               -0.00      0.00   7639.80

     local   stress (kbar)  -6893.34    374.87     -0.00
                              374.87  -6893.34      0.00
                               -0.00      0.00  -6891.29

     nonloc. stress (kbar)   4245.18     -3.49      0.00
                               -3.49   4245.18     -0.00
                                0.00     -0.00   4245.19

     hartree stress (kbar)   9282.18   -141.96     -0.00
                             -141.96   9282.18      0.00
                               -0.00      0.00   9280.82

     exc-cor stress (kbar)  -1529.23     -0.16     -0.00
                               -0.16  -1529.23     -0.00
                               -0.00     -0.00  -1529.23

     corecor stress (kbar)  -1889.33      0.18     -0.00
                                0.18  -1889.33      0.00
                               -0.00      0.00  -1889.33

     ewald   stress (kbar) -10855.29   -233.16     -0.00
                             -233.16 -10855.29      0.00
                               -0.00      0.00 -10855.76

     hubbard stress (kbar)      0.00      0.00      0.00
                                0.00      0.00      0.00
                                0.00      0.00      0.00

     london  stress (kbar)      0.00      0.00      0.00
                                0.00      0.00      0.00
                                0.00      0.00      0.00

     DFT-D3  stress (kbar)      0.00      0.00      0.00
                                0.00      0.00      0.00
                                0.00      0.00      0.00

     XDM     stress (kbar)      0.00      0.00      0.00
                                0.00      0.00      0.00
                                0.00      0.00      0.00

     dft-nl  stress (kbar)      0.00      0.00      0.00
                                0.00      0.00      0.00
                                0.00      0.00      0.00

     TS-vdW  stress (kbar)      0.00      0.00      0.00
                                0.00      0.00      0.00
                                0.00      0.00      0.00



     Writing output data file znse.in_vnscf_shear_1/qe.save/
 
     init_run     :      0.57s CPU      0.61s WALL (       1 calls)
     electrons    :     18.86s CPU     19.75s WALL (       1 calls)
     forces       :      0.14s CPU      0.14s WALL (       1 calls)
     stress       :      0.35s CPU      0.35s WALL (       1 calls)

     Called by init_run:
     wfcinit      :      0.44s CPU      0.47s WALL (       1 calls)
     wfcinit:atom :      0.01s CPU      0.01s WALL (     171 calls)
     wfcinit:wfcr :      0.41s CPU      0.44s WALL (     171 calls)
     potinit      :      0.02s CPU      0.03s WALL (       1 calls)
     hinit0       :      0.08s CPU      0.09s WALL (       1 calls)

     Called by electrons:
     c_bands      :     16.82s CPU     17.53s WALL (      11 calls)
     sum_band     :      1.81s CPU      1.92s WALL (      11 calls)
     v_of_rho     :      0.04s CPU      0.05s WALL (      12 calls)
     v_h          :      0.00s CPU      0.00s WALL (      12 calls)
     v_xc         :      0.05s CPU      0.05s WALL (      14 calls)
     newd         :      0.14s CPU      0.14s WALL (      12 calls)
     mix_rho      :      0.06s CPU      0.06s WALL (      11 calls)

     Called by c_bands:
     init_us_2    :      0.24s CPU      0.25s WALL (    4275 calls)
     cegterg      :     15.88s CPU     16.56s WALL (    1881 calls)

     Called by sum_band:
     sum_band:bec :      0.02s CPU      0.02s WALL (    1881 calls)
     addusdens    :      0.15s CPU      0.15s WALL (      11 calls)

     Called by *egterg:
     h_psi        :      7.10s CPU      7.50s WALL (    6602 calls)
     s_psi        :      0.14s CPU      0.15s WALL (    6602 calls)
     g_psi        :      0.03s CPU      0.03s WALL (    4550 calls)
     cdiaghg      :      6.98s CPU      7.18s WALL (    6431 calls)
     cegterg:over :      1.12s CPU      1.20s WALL (    4550 calls)
     cegterg:upda :      0.35s CPU      0.36s WALL (    4550 calls)
     cegterg:last :      0.16s CPU      0.16s WALL (    1881 calls)
     cdiaghg:chol :      0.46s CPU      0.49s WALL (    6431 calls)
     cdiaghg:inve :      0.25s CPU      0.27s WALL (    6431 calls)
     cdiaghg:para :      0.58s CPU      0.61s WALL (   12862 calls)

     Called by h_psi:
     h_psi:calbec :      0.40s CPU      0.43s WALL (    6602 calls)
     vloc_psi     :      6.50s CPU      6.85s WALL (    6602 calls)
     add_vuspsi   :      0.16s CPU      0.17s WALL (    6602 calls)

     General routines
     calbec       :      0.57s CPU      0.61s WALL (    9338 calls)
     fft          :      0.04s CPU      0.04s WALL (     179 calls)
     ffts         :      0.03s CPU      0.04s WALL (     347 calls)
     fftw         :      7.14s CPU      7.53s WALL (  135588 calls)
     interpolate  :      0.00s CPU      0.00s WALL (      12 calls)
 
     Parallel routines
     fft_scatt_xy :      0.85s CPU      0.90s WALL (  136114 calls)
     fft_scatt_yz :      2.98s CPU      3.16s WALL (  136114 calls)
 
     PWSCF        :     20.22s CPU     27.62s WALL

 
   This run was terminated on:  16:23: 9  25Jun2021            

=------------------------------------------------------------------------------=
   JOB DONE.
=------------------------------------------------------------------------------=
