ANIMSTEPS  5
CRYSTAL
PRIMVEC 1
2.600001036227576   2.600001036227576   0.0
2.600001036227576   0.0   2.600001036227576
0.0   2.600001036227576   2.600001036227576
PRIMCOORD 1
2        1
13   0.0   0.0   0.0   -5.334125901741187e-13   -5.334023207186293e-13   -5.334017770210788e-13
15   1.300000518113788   1.300000518113788   1.300000518113788   0.0   0.0   0.0
PRIMVEC 2
2.8031832493237125   2.8031832493237125   0.0
2.8031832493237125   0.0   2.8031832493237125
0.0   2.8031832493237125   2.8031832493237125
PRIMCOORD 2
2        1
13   0.0   0.0   0.0   -3.7671645347293445e-9   -3.767164545858428e-9   -3.767164548198207e-9
15   1.4015916246618563   1.4015916246618563   1.4015916246618563   3.7671645347293445e-9   3.767164545858428e-9   3.767164548198207e-9
PRIMVEC 3
2.794048479426607   2.794048479426607   -7.901729266780119e-8
2.794048479426607   -7.901729266780119e-8   2.794048479426607
-7.901729266780119e-8   2.794048479426607   2.794048479426607
PRIMCOORD 3
2        1
13   -2.356320942915267e-8   -2.3563209429152665e-8   -2.3563209429152665e-8   4.979837656647113e-9   4.979837643397803e-9   4.979837621856158e-9
15   1.3970242435221898   1.3970242435221898   1.3970242435221898   -4.979837656647113e-9   -4.979837643397803e-9   -4.979837621856158e-9
PRIMVEC 4
2.7859145488387034   2.7859145488387034   -1.8276801579781159e-7
2.7859145488387034   -1.8276801579781159e-7   2.7859145488387034
-1.8276801579781159e-7   2.7859145488387034   2.7859145488387034
PRIMCOORD 4
2        1
13   2.294008103424493e-8   2.294008103424493e-8   2.294008103424493e-8   -2.407582684326417e-8   -2.4075825417418975e-8   -2.4075826341374912e-8
15   1.3929572057872668   1.3929572057872668   1.3929572057872668   2.407582684326417e-8   2.4075825417418975e-8   2.4075826341374912e-8
PRIMVEC 5
2.781635637618364   2.781635637618364   -2.6110727430192653e-7
2.781635637618364   -2.6110727430192653e-7   2.781635637618364
-2.6110727430192653e-7   2.781635637618364   2.781635637618364
PRIMCOORD 5
2        1
13   -3.1234311655686993e-7   -3.1234311655686993e-7   -3.1234311655686993e-7   1.5037327217955423e-7   1.5037327214620059e-7   1.5037327220211725e-7
15   1.39081806587548   1.39081806587548   1.39081806587548   -1.5037327217955423e-7   -1.5037327214620059e-7   -1.5037327220211725e-7
