ANIMSTEPS  5
CRYSTAL
PRIMVEC 1
2.600001036227576   2.600001036227576   0.0
2.600001036227576   0.0   2.600001036227576
0.0   2.600001036227576   2.600001036227576
PRIMCOORD 1
2        1
13   0.0   0.0   0.0   -5.334133018837856e-13   -5.333973436030099e-13   -5.334154996702847e-13
15   1.300000518113788   1.300000518113788   1.300000518113788   0.0   0.0   0.0
PRIMVEC 2
2.8031828220374195   2.8031828220374195   0.0
2.8031828220374195   0.0   2.8031828220374195
0.0   2.8031828220374195   2.8031828220374195
PRIMCOORD 2
2        1
13   0.0   0.0   0.0   -3.767150537591382e-9   -3.767150556130179e-9   -3.767150535118073e-9
15   1.4015914110187098   1.4015914110187098   1.4015914110187098   3.767150537591382e-9   3.767150556130179e-9   3.767150535118073e-9
PRIMVEC 3
2.794048239861545   2.794048239861545   -7.901677551631023e-8
2.794048239861545   -7.901677551631023e-8   2.794048239861545
-7.901677551631023e-8   2.794048239861545   2.794048239861545
PRIMCOORD 3
2        1
13   -2.35630666245227e-8   -2.35630666245227e-8   -2.35630666245227e-8   4.9797694871613156e-9   4.979769982408886e-9   4.97976869687123e-9
15   1.3970241237396455   1.3970241237396455   1.3970241237396455   -4.9797694871613156e-9   -4.979769982408886e-9   -4.97976869687123e-9
PRIMVEC 4
2.785914478551774   2.785914478551774   -1.8276782746109853e-7
2.785914478551774   -1.8276782746109853e-7   2.785914478551774
-1.8276782746109853e-7   2.785914478551774   2.785914478551774
PRIMCOORD 4
2        1
13   2.2939485698897883e-8   2.2939485698897887e-8   2.2939485698897887e-8   -2.407552000344796e-8   -2.4075519019140465e-8   -2.4075518189660688e-8
15   1.3929571706444446   1.3929571706444446   1.3929571706444446   2.407552000344796e-8   2.4075519019140465e-8   2.4075518189660688e-8
PRIMVEC 5
2.781655318451078   2.781655318451078   -2.6074576358249597e-7
2.781655318451078   -2.6074576358249597e-7   2.781655318451078
-2.6074576358249597e-7   2.781655318451078   2.781655318451078
PRIMCOORD 5
2        1
13   -3.107996528300101e-7   -3.1079965283001003e-7   -3.1079965283001003e-7   1.495612974572298e-7   1.4956129745201687e-7   1.495612981621145e-7
15   1.390827904838751   1.390827904838751   1.390827904838751   -1.495612974572298e-7   -1.4956129745201687e-7   -1.495612981621145e-7
