ANIMSTEPS  3
CRYSTAL
PRIMVEC 1
0.0   2.600001036227576   2.600001036227576
2.600001036227576   0.0   2.600001036227576
2.600001036227576   2.600001036227576   0.0
PRIMCOORD 1
2        1
13   0.0   0.0   0.0   0.0   0.0   0.0
15   1.300000518113788   1.300000518113788   1.300000518113788   0.0   0.0   0.0
PRIMVEC 2
0.0   2.7281494917115117   2.7281494917115117
2.7281494917115117   0.0   2.7281494917115117
2.7281494917115117   2.7281494917115117   0.0
PRIMCOORD 2
2        1
13   0.0   0.0   0.0   0.0   0.0   0.0
15   1.3640747458557558   1.3640747458557558   1.3640747458557558   0.0   0.0   0.0
PRIMVEC 3
0.0   2.7462787158739403   2.7462787158739403
2.7462787158739403   0.0   2.7462787158739403
2.7462787158739403   2.7462787158739403   0.0
PRIMCOORD 3
2        1
13   0.0   0.0   0.0   0.0   0.0   0.0
15   1.3731393579369702   1.3731393579369702   1.3731393579369702   0.0   0.0   0.0
