
     Program PWSCF v.6.5 starts on 25Jun2021 at 16:19:52 

     This program is part of the open-source Quantum ESPRESSO suite
     for quantum simulation of materials; please cite
         "P. Giannozzi et al., J. Phys.:Condens. Matter 21 395502 (2009);
         "P. Giannozzi et al., J. Phys.:Condens. Matter 29 465901 (2017);
          URL http://www.quantum-espresso.org", 
     in publications or presentations arising from this work. More details at
     http://www.quantum-espresso.org/quote

     Parallel version (MPI), running on    12 processors

     MPI processes distributed on     1 nodes
     R & G space division:  proc/nbgrp/npool/nimage =      12
     Reading input from dimer.in_vnscf_coords_6/qe.in
Warning: card &IONS ignored
Warning: card   ION_DYNAMICS='BFGS', ignored
Warning: card / ignored
Warning: card &CELL ignored
Warning: card  CELL_DYNAMICS = 'BFGS' ignored
Warning: card  CELL_DOFREE = 'ALL' ignored
Warning: card  CELL_FACTOR = 1.0 ignored
Warning: card / ignored
     Message from routine read_cards :
     DEPRECATED: no units specified in CELL_PARAMETERS card

     Current dimensions of program PWSCF are:
     Max number of different atomic species (ntypx) = 10
     Max number of k-points (npk) =  40000
     Max angular momentum in pseudopotentials (lmaxx) =  3
               file mg.pbesol.UPF: wavefunction(s)  3P renormalized

     Subspace diagonalization in iterative solution of the eigenvalue problem:
     one sub-group per band group will be used
     scalapack distributed-memory algorithm (size of sub-group:  3*  3 procs)

     Message from routine setup:
     using ibrav=0 with symmetry is DISCOURAGED, use correct ibrav instead
 
     Parallelization info
     --------------------
     sticks:   dense  smooth     PW     G-vecs:    dense   smooth      PW
     Min         325     233     64                21812    13325    1942
     Max         327     234     65                21815    13330    1947
     Sum        3909    2801    777               261761   159925   23349
 


     bravais-lattice index     =            0
     lattice parameter (alat)  =      14.0000  a.u.
     unit-cell volume          =    3920.0000 (a.u.)^3
     number of atoms/cell      =            2
     number of atomic types    =            2
     number of electrons       =        16.00
     number of Kohn-Sham states=           12
     kinetic-energy cutoff     =      45.0000  Ry
     charge density cutoff     =     250.0000  Ry
     convergence threshold     =      1.0E-09
     mixing beta               =       0.3000
     number of iterations used =            8  local-TF  mixing
     Exchange-correlation= SLA  PW   PSX  PSC
                           (   1   4  10   8   0   0   0)
     A smooth kinetic-energy cutoff is imposed at      44.5000 Ry
     height of the smooth step-function =             800.0000 Ry
     width of the smooth step-function  =               1.0000 Ry


     celldm(1)=  14.000000  celldm(2)=   0.000000  celldm(3)=   0.000000
     celldm(4)=   0.000000  celldm(5)=   0.000000  celldm(6)=   0.000000

     crystal axes: (cart. coord. in units of alat)
               a(1) = (   1.000000   0.000000   0.000000 )  
               a(2) = (   0.000000   1.000000   0.000000 )  
               a(3) = (   0.000000   0.000000   1.428571 )  

     reciprocal axes: (cart. coord. in units 2 pi/alat)
               b(1) = (  1.000000  0.000000  0.000000 )  
               b(2) = (  0.000000  1.000000  0.000000 )  
               b(3) = (  0.000000  0.000000  0.700000 )  


     PseudoPot. # 1 for Mg read from file:
     /home/kfg/codes/ThreeBodyTB.jl/src/../pseudo/gbrv_pbesol/mg.pbesol.UPF
     MD5 check sum: cbba17e5274afd115179030b10be074e
     Pseudo is Ultrasoft, Zval = 10.0
     Generated by new atomic code, or converted to UPF format
     Using radial grid of  821 points,  7 beta functions with: 
                l(1) =   0
                l(2) =   0
                l(3) =   0
                l(4) =   1
                l(5) =   1
                l(6) =   2
                l(7) =   2
     Q(r) pseudized with  8 coefficients,  rinner =    1.200   1.200   1.200
                                                       1.200   1.200

     PseudoPot. # 2 for S  read from file:
     /home/kfg/codes/ThreeBodyTB.jl/src/../pseudo/gbrv_pbesol/s.pbesol.UPF
     MD5 check sum: 0ccfa86ec6eb59065d10aaae963ef2a7
     Pseudo is Ultrasoft + core correction, Zval =  6.0
     Generated by new atomic code, or converted to UPF format
     Using radial grid of  907 points,  6 beta functions with: 
                l(1) =   0
                l(2) =   0
                l(3) =   1
                l(4) =   1
                l(5) =   2
                l(6) =   2
     Q(r) pseudized with  8 coefficients,  rinner =    1.300   1.300   1.300
                                                       1.300   1.300

     atomic species   valence    mass     pseudopotential
        Mg            10.00    24.31000     Mg( 1.00)
        S              6.00    32.06000     S ( 1.00)

      8 Sym. Ops. (no inversion) found


                                    s                        frac. trans.

      isym =  1     identity                                     

 cryst.   s( 1) = (     1          0          0      )
                  (     0          1          0      )
                  (     0          0          1      )

 cart.    s( 1) = (  1.0000000  0.0000000  0.0000000 )
                  (  0.0000000  1.0000000  0.0000000 )
                  (  0.0000000  0.0000000  1.0000000 )


      isym =  2     180 deg rotation - cart. axis [0,0,1]        

 cryst.   s( 2) = (    -1          0          0      )
                  (     0         -1          0      )
                  (     0          0          1      )

 cart.    s( 2) = ( -1.0000000  0.0000000  0.0000000 )
                  (  0.0000000 -1.0000000  0.0000000 )
                  (  0.0000000  0.0000000  1.0000000 )


      isym =  3      90 deg rotation - cart. axis [0,0,-1]       

 cryst.   s( 3) = (     0         -1          0      )
                  (     1          0          0      )
                  (     0          0          1      )

 cart.    s( 3) = (  0.0000000  1.0000000  0.0000000 )
                  ( -1.0000000  0.0000000  0.0000000 )
                  (  0.0000000  0.0000000  1.0000000 )


      isym =  4      90 deg rotation - cart. axis [0,0,1]        

 cryst.   s( 4) = (     0          1          0      )
                  (    -1          0          0      )
                  (     0          0          1      )

 cart.    s( 4) = (  0.0000000 -1.0000000  0.0000000 )
                  (  1.0000000  0.0000000  0.0000000 )
                  (  0.0000000  0.0000000  1.0000000 )


      isym =  5     inv. 180 deg rotation - cart. axis [0,1,0]   

 cryst.   s( 5) = (     1          0          0      )
                  (     0         -1          0      )
                  (     0          0          1      )

 cart.    s( 5) = (  1.0000000  0.0000000  0.0000000 )
                  (  0.0000000 -1.0000000  0.0000000 )
                  (  0.0000000  0.0000000  1.0000000 )


      isym =  6     inv. 180 deg rotation - cart. axis [1,0,0]   

 cryst.   s( 6) = (    -1          0          0      )
                  (     0          1          0      )
                  (     0          0          1      )

 cart.    s( 6) = ( -1.0000000  0.0000000  0.0000000 )
                  (  0.0000000  1.0000000  0.0000000 )
                  (  0.0000000  0.0000000  1.0000000 )


      isym =  7     inv. 180 deg rotation - cart. axis [1,1,0]   

 cryst.   s( 7) = (     0         -1          0      )
                  (    -1          0          0      )
                  (     0          0          1      )

 cart.    s( 7) = (  0.0000000 -1.0000000  0.0000000 )
                  ( -1.0000000  0.0000000  0.0000000 )
                  (  0.0000000  0.0000000  1.0000000 )


      isym =  8     inv. 180 deg rotation - cart. axis [1,-1,0]  

 cryst.   s( 8) = (     0          1          0      )
                  (     1          0          0      )
                  (     0          0          1      )

 cart.    s( 8) = (  0.0000000  1.0000000  0.0000000 )
                  (  1.0000000  0.0000000  0.0000000 )
                  (  0.0000000  0.0000000  1.0000000 )


   Cartesian axes

     site n.     atom                  positions (alat units)
         1           Mg  tau(   1) = (   0.0000000   0.0000000  -0.1487427  )
         2           S   tau(   2) = (   0.0000000   0.0000000   0.1487427  )

   Crystallographic axes

     site n.     atom                  positions (cryst. coord.)
         1           Mg  tau(   1) = (  0.0000000  0.0000000 -0.1041199  )
         2           S   tau(   2) = (  0.0000000  0.0000000  0.1041199  )

     number of k points=    18  Gaussian smearing, width (Ry)=  0.0100
                       cart. coord. in units 2pi/alat
        k(    1) = (   0.0000000   0.0000000   0.0000000), wk =   0.0312500
        k(    2) = (   0.0000000   0.0000000   0.1750000), wk =   0.0625000
        k(    3) = (   0.0000000   0.0000000  -0.3500000), wk =   0.0312500
        k(    4) = (   0.0000000   0.2500000   0.0000000), wk =   0.1250000
        k(    5) = (   0.0000000   0.2500000   0.1750000), wk =   0.2500000
        k(    6) = (   0.0000000   0.2500000  -0.3500000), wk =   0.1250000
        k(    7) = (   0.0000000  -0.5000000   0.0000000), wk =   0.0625000
        k(    8) = (   0.0000000  -0.5000000   0.1750000), wk =   0.1250000
        k(    9) = (   0.0000000  -0.5000000  -0.3500000), wk =   0.0625000
        k(   10) = (   0.2500000   0.2500000   0.0000000), wk =   0.1250000
        k(   11) = (   0.2500000   0.2500000   0.1750000), wk =   0.2500000
        k(   12) = (   0.2500000   0.2500000  -0.3500000), wk =   0.1250000
        k(   13) = (   0.2500000  -0.5000000   0.0000000), wk =   0.1250000
        k(   14) = (   0.2500000  -0.5000000   0.1750000), wk =   0.2500000
        k(   15) = (   0.2500000  -0.5000000  -0.3500000), wk =   0.1250000
        k(   16) = (  -0.5000000  -0.5000000   0.0000000), wk =   0.0312500
        k(   17) = (  -0.5000000  -0.5000000   0.1750000), wk =   0.0625000
        k(   18) = (  -0.5000000  -0.5000000  -0.3500000), wk =   0.0312500

                       cryst. coord.
        k(    1) = (   0.0000000   0.0000000   0.0000000), wk =   0.0312500
        k(    2) = (   0.0000000   0.0000000   0.2500000), wk =   0.0625000
        k(    3) = (   0.0000000   0.0000000  -0.5000000), wk =   0.0312500
        k(    4) = (   0.0000000   0.2500000   0.0000000), wk =   0.1250000
        k(    5) = (   0.0000000   0.2500000   0.2500000), wk =   0.2500000
        k(    6) = (   0.0000000   0.2500000  -0.5000000), wk =   0.1250000
        k(    7) = (   0.0000000  -0.5000000   0.0000000), wk =   0.0625000
        k(    8) = (   0.0000000  -0.5000000   0.2500000), wk =   0.1250000
        k(    9) = (   0.0000000  -0.5000000  -0.5000000), wk =   0.0625000
        k(   10) = (   0.2500000   0.2500000   0.0000000), wk =   0.1250000
        k(   11) = (   0.2500000   0.2500000   0.2500000), wk =   0.2500000
        k(   12) = (   0.2500000   0.2500000  -0.5000000), wk =   0.1250000
        k(   13) = (   0.2500000  -0.5000000   0.0000000), wk =   0.1250000
        k(   14) = (   0.2500000  -0.5000000   0.2500000), wk =   0.2500000
        k(   15) = (   0.2500000  -0.5000000  -0.5000000), wk =   0.1250000
        k(   16) = (  -0.5000000  -0.5000000   0.0000000), wk =   0.0312500
        k(   17) = (  -0.5000000  -0.5000000   0.2500000), wk =   0.0625000
        k(   18) = (  -0.5000000  -0.5000000  -0.5000000), wk =   0.0312500

     Dense  grid:   261761 G-vectors     FFT dimensions: (  72,  72, 108)

     Smooth grid:   159925 G-vectors     FFT dimensions: (  60,  60,  90)

     Dynamical RAM for                 wfc:       0.30 MB

     Dynamical RAM for     wfc (w. buffer):       5.79 MB

     Dynamical RAM for           str. fact:       0.67 MB

     Dynamical RAM for           local pot:       0.00 MB

     Dynamical RAM for          nlocal pot:       0.94 MB

     Dynamical RAM for                qrad:       7.53 MB

     Dynamical RAM for          rho,v,vnew:       2.07 MB

     Dynamical RAM for               rhoin:       0.69 MB

     Dynamical RAM for            rho*nmix:       5.33 MB

     Dynamical RAM for           G-vectors:       1.35 MB

     Dynamical RAM for          h,s,v(r/c):       0.01 MB

     Dynamical RAM for          <psi|beta>:       0.01 MB

     Dynamical RAM for                 psi:       1.22 MB

     Dynamical RAM for                hpsi:       1.22 MB

     Dynamical RAM for                spsi:       1.22 MB

     Dynamical RAM for      wfcinit/wfcrot:       0.61 MB

     Dynamical RAM for           addusdens:      68.57 MB

     Dynamical RAM for          addusforce:      69.75 MB

     Dynamical RAM for         addusstress:      73.23 MB

     Estimated static dynamical RAM per process >      27.14 MB

     Estimated max dynamical RAM per process >     100.37 MB

     Estimated total dynamical RAM >       1.18 GB

     Initial potential from superposition of free atoms

     starting charge   15.69974, renormalised to   16.00000

     negative rho (up, down):  3.188E-05 0.000E+00
     Starting wfcs are   12 randomized atomic wfcs

     total cpu time spent up to now is        1.0 secs

     Self-consistent Calculation

     iteration #  1     ecut=    45.00 Ry     beta= 0.30
     Davidson diagonalization with overlap
     ethr =  1.00E-02,  avg # of iterations =  5.0

     negative rho (up, down):  1.045E-04 0.000E+00

     total cpu time spent up to now is        4.1 secs

     total energy              =    -149.09236001 Ry
     Harris-Foulkes estimate   =    -149.17941609 Ry
     estimated scf accuracy    <       0.72883477 Ry

     iteration #  2     ecut=    45.00 Ry     beta= 0.30
     Davidson diagonalization with overlap
     ethr =  4.56E-03,  avg # of iterations =  1.0

     negative rho (up, down):  1.250E-02 0.000E+00

     total cpu time spent up to now is        5.9 secs

     total energy              =    -148.85921030 Ry
     Harris-Foulkes estimate   =    -149.10284554 Ry
     estimated scf accuracy    <       0.50589604 Ry

     iteration #  3     ecut=    45.00 Ry     beta= 0.30
     Davidson diagonalization with overlap
     ethr =  3.16E-03,  avg # of iterations =  1.8

     negative rho (up, down):  9.267E-03 0.000E+00

     total cpu time spent up to now is        7.9 secs

     total energy              =    -148.93830633 Ry
     Harris-Foulkes estimate   =    -148.96546159 Ry
     estimated scf accuracy    <       0.11167466 Ry

     iteration #  4     ecut=    45.00 Ry     beta= 0.30
     Davidson diagonalization with overlap
     ethr =  6.98E-04,  avg # of iterations =  2.1

     negative rho (up, down):  2.452E-02 0.000E+00

     total cpu time spent up to now is        9.8 secs

     total energy              =    -148.92958366 Ry
     Harris-Foulkes estimate   =    -148.97161392 Ry
     estimated scf accuracy    <       0.08959992 Ry

     iteration #  5     ecut=    45.00 Ry     beta= 0.30
     Davidson diagonalization with overlap
     ethr =  5.60E-04,  avg # of iterations =  2.4

     negative rho (up, down):  1.876E-02 0.000E+00

     total cpu time spent up to now is       11.8 secs

     total energy              =    -148.94314498 Ry
     Harris-Foulkes estimate   =    -148.94422676 Ry
     estimated scf accuracy    <       0.00927521 Ry

     iteration #  6     ecut=    45.00 Ry     beta= 0.30
     Davidson diagonalization with overlap
     ethr =  5.80E-05,  avg # of iterations =  6.1

     negative rho (up, down):  1.140E-02 0.000E+00

     total cpu time spent up to now is       14.4 secs

     total energy              =    -148.94419091 Ry
     Harris-Foulkes estimate   =    -148.94412281 Ry
     estimated scf accuracy    <       0.00172073 Ry

     iteration #  7     ecut=    45.00 Ry     beta= 0.30
     Davidson diagonalization with overlap
     ethr =  1.08E-05,  avg # of iterations =  3.3

     negative rho (up, down):  3.139E-03 0.000E+00

     total cpu time spent up to now is       16.9 secs

     total energy              =    -148.94348805 Ry
     Harris-Foulkes estimate   =    -148.94482114 Ry
     estimated scf accuracy    <       0.00561318 Ry

     iteration #  8     ecut=    45.00 Ry     beta= 0.30
     Davidson diagonalization with overlap
     ethr =  1.08E-05,  avg # of iterations =  3.0

     negative rho (up, down):  1.764E-03 0.000E+00

     total cpu time spent up to now is       19.4 secs

     total energy              =    -148.94447186 Ry
     Harris-Foulkes estimate   =    -148.94442089 Ry
     estimated scf accuracy    <       0.00044959 Ry

     iteration #  9     ecut=    45.00 Ry     beta= 0.30
     Davidson diagonalization with overlap
     ethr =  2.81E-06,  avg # of iterations =  4.6

     negative rho (up, down):  7.371E-05 0.000E+00

     total cpu time spent up to now is       22.3 secs

     total energy              =    -148.94433889 Ry
     Harris-Foulkes estimate   =    -148.94448561 Ry
     estimated scf accuracy    <       0.00086565 Ry

     iteration # 10     ecut=    45.00 Ry     beta= 0.30
     Davidson diagonalization with overlap
     ethr =  2.81E-06,  avg # of iterations =  6.2

     negative rho (up, down):  1.301E-05 0.000E+00

     total cpu time spent up to now is       25.3 secs

     total energy              =    -148.94436366 Ry
     Harris-Foulkes estimate   =    -148.94437534 Ry
     estimated scf accuracy    <       0.00013363 Ry

     iteration # 11     ecut=    45.00 Ry     beta= 0.30
     Davidson diagonalization with overlap
     ethr =  8.35E-07,  avg # of iterations =  3.3

     negative rho (up, down):  2.123E-05 0.000E+00

     total cpu time spent up to now is       28.5 secs

     total energy              =    -148.94436202 Ry
     Harris-Foulkes estimate   =    -148.94436857 Ry
     estimated scf accuracy    <       0.00003748 Ry

     iteration # 12     ecut=    45.00 Ry     beta= 0.30
     Davidson diagonalization with overlap
     ethr =  2.34E-07,  avg # of iterations =  1.7

     negative rho (up, down):  3.266E-05 0.000E+00

     total cpu time spent up to now is       31.2 secs

     total energy              =    -148.94436617 Ry
     Harris-Foulkes estimate   =    -148.94436550 Ry
     estimated scf accuracy    <       0.00000128 Ry

     iteration # 13     ecut=    45.00 Ry     beta= 0.30
     Davidson diagonalization with overlap
     ethr =  8.00E-09,  avg # of iterations =  3.3

     negative rho (up, down):  4.101E-05 0.000E+00

     total cpu time spent up to now is       33.6 secs

     total energy              =    -148.94436587 Ry
     Harris-Foulkes estimate   =    -148.94436651 Ry
     estimated scf accuracy    <       0.00000018 Ry

     iteration # 14     ecut=    45.00 Ry     beta= 0.30
     Davidson diagonalization with overlap
     ethr =  1.12E-09,  avg # of iterations =  3.1

     negative rho (up, down):  4.386E-05 0.000E+00

     total cpu time spent up to now is       36.3 secs

     total energy              =    -148.94436588 Ry
     Harris-Foulkes estimate   =    -148.94436591 Ry
     estimated scf accuracy    <       0.00000016 Ry

     iteration # 15     ecut=    45.00 Ry     beta= 0.30
     Davidson diagonalization with overlap
     ethr =  1.00E-09,  avg # of iterations =  2.1

     negative rho (up, down):  4.567E-05 0.000E+00

     total cpu time spent up to now is       39.5 secs

     total energy              =    -148.94436592 Ry
     Harris-Foulkes estimate   =    -148.94436591 Ry
     estimated scf accuracy    <          6.6E-09 Ry

     iteration # 16     ecut=    45.00 Ry     beta= 0.30
     Davidson diagonalization with overlap
     ethr =  4.14E-11,  avg # of iterations =  3.2

     negative rho (up, down):  4.645E-05 0.000E+00

     total cpu time spent up to now is       43.0 secs

     total energy              =    -148.94436592 Ry
     Harris-Foulkes estimate   =    -148.94436592 Ry
     estimated scf accuracy    <          5.4E-09 Ry

     iteration # 17     ecut=    45.00 Ry     beta= 0.30
     Davidson diagonalization with overlap
     ethr =  3.36E-11,  avg # of iterations =  2.6

     negative rho (up, down):  4.706E-05 0.000E+00

     total cpu time spent up to now is       45.0 secs

     total energy              =    -148.94436593 Ry
     Harris-Foulkes estimate   =    -148.94436592 Ry
     estimated scf accuracy    <          1.1E-09 Ry

     iteration # 18     ecut=    45.00 Ry     beta= 0.30
     Davidson diagonalization with overlap
     ethr =  6.65E-12,  avg # of iterations =  2.7

     negative rho (up, down):  4.734E-05 0.000E+00

     total cpu time spent up to now is       46.4 secs

     End of self-consistent calculation

          k = 0.0000 0.0000 0.0000 ( 19923 PWs)   bands (ev):

   -80.4769 -47.4316 -47.4316 -47.4154 -14.1267  -5.8369  -4.0424  -4.0424
    -3.6429  -0.4608  -0.4608   0.2266

     occupation numbers 
     1.0000   1.0000   1.0000   1.0000   1.0000   1.0000   0.9907   0.9907
     0.0360   0.0000   0.0000   0.0000

          k = 0.0000 0.0000 0.1750 ( 19971 PWs)   bands (ev):

   -80.4769 -47.4316 -47.4316 -47.4154 -14.1267  -5.8379  -4.0423  -4.0423
    -3.6367  -0.4638  -0.4638   0.1579

     occupation numbers 
     1.0000   1.0000   1.0000   1.0000   1.0000   1.0000   0.9907   0.9907
     0.0312   0.0000   0.0000   0.0000

          k = 0.0000 0.0000-0.3500 ( 19978 PWs)   bands (ev):

   -80.4769 -47.4316 -47.4316 -47.4154 -14.1267  -5.8388  -4.0422  -4.0422
    -3.6305  -0.4667  -0.4667   0.0802

     occupation numbers 
     1.0000   1.0000   1.0000   1.0000   1.0000   1.0000   0.9906   0.9906
     0.0269   0.0000   0.0000   0.0000

          k = 0.0000 0.2500 0.0000 ( 19968 PWs)   bands (ev):

   -80.4769 -47.4316 -47.4316 -47.4154 -14.1266  -5.8333  -4.0575  -4.0411
    -3.6231  -0.7756  -0.4334   0.5401

     occupation numbers 
     1.0000   1.0000   1.0000   1.0000   1.0000   1.0000   0.9940   0.9903
     0.0224   0.0000   0.0000   0.0000

          k = 0.0000 0.2500 0.1750 ( 19980 PWs)   bands (ev):

   -80.4769 -47.4316 -47.4316 -47.4154 -14.1266  -5.8342  -4.0574  -4.0410
    -3.6172  -0.7785  -0.4363   0.3378

     occupation numbers 
     1.0000   1.0000   1.0000   1.0000   1.0000   1.0000   0.9939   0.9903
     0.0194   0.0000   0.0000   0.0000

          k = 0.0000 0.2500-0.3500 ( 19962 PWs)   bands (ev):

   -80.4769 -47.4316 -47.4316 -47.4154 -14.1266  -5.8352  -4.0573  -4.0409
    -3.6113  -0.7814  -0.4391   0.2312

     occupation numbers 
     1.0000   1.0000   1.0000   1.0000   1.0000   1.0000   0.9939   0.9903
     0.0166   0.0000   0.0000   0.0000

          k = 0.0000-0.5000 0.0000 ( 20022 PWs)   bands (ev):

   -80.4769 -47.4316 -47.4316 -47.4154 -14.1265  -5.8297  -4.0721  -4.0398
    -3.6030  -0.9810  -0.4044   0.7681

     occupation numbers 
     1.0000   1.0000   1.0000   1.0000   1.0000   1.0000   0.9961   0.9900
     0.0134   0.0000   0.0000   0.0000

          k = 0.0000-0.5000 0.1750 ( 19978 PWs)   bands (ev):

   -80.4769 -47.4316 -47.4316 -47.4154 -14.1265  -5.8306  -4.0719  -4.0397
    -3.5974  -0.9847  -0.4071   0.5834

     occupation numbers 
     1.0000   1.0000   1.0000   1.0000   1.0000   1.0000   0.9961   0.9900
     0.0115   0.0000   0.0000   0.0000

          k = 0.0000-0.5000-0.3500 ( 19976 PWs)   bands (ev):

   -80.4769 -47.4316 -47.4316 -47.4154 -14.1265  -5.8315  -4.0717  -4.0396
    -3.5918  -0.9884  -0.4098   0.4713

     occupation numbers 
     1.0000   1.0000   1.0000   1.0000   1.0000   1.0000   0.9961   0.9899
     0.0099   0.0000   0.0000   0.0000

          k = 0.2500 0.2500 0.0000 ( 19983 PWs)   bands (ev):

   -80.4769 -47.4316 -47.4316 -47.4154 -14.1265  -5.8298  -4.0565  -4.0552
    -3.6042  -0.7584  -0.6883   0.6985

     occupation numbers 
     1.0000   1.0000   1.0000   1.0000   1.0000   1.0000   0.9938   0.9935
     0.0138   0.0000   0.0000   0.0000

          k = 0.2500 0.2500 0.1750 ( 19985 PWs)   bands (ev):

   -80.4769 -47.4316 -47.4316 -47.4154 -14.1265  -5.8307  -4.0563  -4.0551
    -3.5986  -0.7613  -0.6918   0.4901

     occupation numbers 
     1.0000   1.0000   1.0000   1.0000   1.0000   1.0000   0.9938   0.9935
     0.0119   0.0000   0.0000   0.0000

          k = 0.2500 0.2500-0.3500 ( 19980 PWs)   bands (ev):

   -80.4769 -47.4316 -47.4316 -47.4154 -14.1265  -5.8316  -4.0562  -4.0550
    -3.5930  -0.7641  -0.6953   0.3776

     occupation numbers 
     1.0000   1.0000   1.0000   1.0000   1.0000   1.0000   0.9937   0.9935
     0.0102   0.0000   0.0000   0.0000

          k = 0.2500-0.5000 0.0000 ( 20020 PWs)   bands (ev):

   -80.4769 -47.4316 -47.4316 -47.4154 -14.1265  -5.8263  -4.0701  -4.0541
    -3.5852  -0.9241  -0.6679   0.8923

     occupation numbers 
     1.0000   1.0000   1.0000   1.0000   1.0000   1.0000   0.9959   0.9933
     0.0082   0.0000   0.0000   0.0000

          k = 0.2500-0.5000 0.1750 ( 19978 PWs)   bands (ev):

   -80.4769 -47.4316 -47.4316 -47.4154 -14.1265  -5.8272  -4.0699  -4.0540
    -3.5798  -0.9279  -0.6713   0.7203

     occupation numbers 
     1.0000   1.0000   1.0000   1.0000   1.0000   1.0000   0.9958   0.9933
     0.0070   0.0000   0.0000   0.0000

          k = 0.2500-0.5000-0.3500 ( 19992 PWs)   bands (ev):

   -80.4769 -47.4316 -47.4316 -47.4154 -14.1265  -5.8281  -4.0697  -4.0539
    -3.5744  -0.9317  -0.6748   0.6072

     occupation numbers 
     1.0000   1.0000   1.0000   1.0000   1.0000   1.0000   0.9958   0.9933
     0.0060   0.0000   0.0000   0.0000

          k =-0.5000-0.5000 0.0000 ( 20028 PWs)   bands (ev):

   -80.4769 -47.4316 -47.4316 -47.4154 -14.1264  -5.8229  -4.0680  -4.0680
    -3.5672  -0.8579  -0.8579   0.8365

     occupation numbers 
     1.0000   1.0000   1.0000   1.0000   1.0000   1.0000   0.9956   0.9956
     0.0048   0.0000   0.0000   0.0000

          k =-0.5000-0.5000 0.1750 ( 19944 PWs)   bands (ev):

   -80.4769 -47.4316 -47.4316 -47.4154 -14.1264  -5.8238  -4.0679  -4.0679
    -3.5620  -0.8619  -0.8619   0.9078

     occupation numbers 
     1.0000   1.0000   1.0000   1.0000   1.0000   1.0000   0.9956   0.9956
     0.0041   0.0000   0.0000   0.0000

          k =-0.5000-0.5000-0.3500 ( 20000 PWs)   bands (ev):

   -80.4769 -47.4316 -47.4316 -47.4154 -14.1264  -5.8246  -4.0677  -4.0677
    -3.5569  -0.8659  -0.8659   0.8000

     occupation numbers 
     1.0000   1.0000   1.0000   1.0000   1.0000   1.0000   0.9956   0.9956
     0.0035   0.0000   0.0000   0.0000

     the Fermi energy is    -3.8160 ev

!    total energy              =    -148.94436596 Ry
     Harris-Foulkes estimate   =    -148.94436593 Ry
     estimated scf accuracy    <          8.0E-11 Ry

     The total energy is the sum of the following terms:

     one-electron contribution =    -208.98666935 Ry
     hartree contribution      =      99.80264072 Ry
     xc contribution           =     -24.67888330 Ry
     ewald contribution        =     -15.08045726 Ry
     smearing contrib. (-TS)   =      -0.00099676 Ry

     convergence has been achieved in  18 iterations

     negative rho (up, down):  4.734E-05 0.000E+00

     Forces acting on atoms (cartesian axes, Ry/au):

     atom    1 type  1   force =     0.00000000    0.00000000    0.02987170
     atom    2 type  2   force =     0.00000000    0.00000000   -0.02987170
     The non-local contrib.  to forces
     atom    1 type  1   force =     0.00000000    0.00000000   -1.02011356
     atom    2 type  2   force =     0.00000000    0.00000000   -0.15177309
     The ionic contribution  to forces
     atom    1 type  1   force =    -0.00000000   -0.00000000   -6.83612583
     atom    2 type  2   force =     0.00000000    0.00000000    6.83612583
     The local contribution  to forces
     atom    1 type  1   force =     0.00000000    0.00000000    7.88613348
     atom    2 type  2   force =    -0.00000000   -0.00000000   -6.72004780
     The core correction contribution to forces
     atom    1 type  1   force =     0.00000000    0.00000000    0.00000000
     atom    2 type  2   force =     0.00000000    0.00000000    0.00583023
     The Hubbard contrib.    to forces
     atom    1 type  1   force =     0.00000000    0.00000000    0.00000000
     atom    2 type  2   force =     0.00000000    0.00000000    0.00000000
     The SCF correction term to forces
     atom    1 type  1   force =     0.00000000   -0.00000000   -0.00001386
     atom    2 type  2   force =     0.00000000   -0.00000000    0.00000166

     Total force =     0.042245     Total SCF correction =     0.000014


     Computing stress (Cartesian axis) and pressure


     negative rho (up, down):  4.734E-05 0.000E+00
          total   stress  (Ry/bohr**3)                   (kbar)     P=       -1.57
   0.00000359   0.00000000   0.00000000            0.53        0.00        0.00
   0.00000000   0.00000359   0.00000000            0.00        0.53        0.00
   0.00000000   0.00000000  -0.00003930            0.00        0.00       -5.78

     kinetic stress (kbar)    598.32      0.00      0.00
                                0.00    598.32      0.00
                                0.00      0.00    554.83

     local   stress (kbar)  -1473.22      0.00     -0.00
                                0.00  -1473.22     -0.00
                               -0.00     -0.00  -2192.05

     nonloc. stress (kbar)    329.42      0.00      0.00
                                0.00    329.42      0.00
                                0.00      0.00    327.95

     hartree stress (kbar)   1181.00     -0.00      0.00
                               -0.00   1181.00     -0.00
                                0.00     -0.00   1383.27

     exc-cor stress (kbar)   -114.96      0.00     -0.00
                                0.00   -114.96      0.00
                               -0.00      0.00   -114.37

     corecor stress (kbar)   -146.74      0.00      0.00
                                0.00   -146.74      0.00
                                0.00      0.00   -146.06

     ewald   stress (kbar)   -373.29     -0.00      0.00
                               -0.00   -373.29      0.00
                                0.00      0.00    180.66

     hubbard stress (kbar)      0.00      0.00      0.00
                                0.00      0.00      0.00
                                0.00      0.00      0.00

     london  stress (kbar)      0.00      0.00      0.00
                                0.00      0.00      0.00
                                0.00      0.00      0.00

     DFT-D3  stress (kbar)      0.00      0.00      0.00
                                0.00      0.00      0.00
                                0.00      0.00      0.00

     XDM     stress (kbar)      0.00      0.00      0.00
                                0.00      0.00      0.00
                                0.00      0.00      0.00

     dft-nl  stress (kbar)      0.00      0.00      0.00
                                0.00      0.00      0.00
                                0.00      0.00      0.00

     TS-vdW  stress (kbar)      0.00      0.00      0.00
                                0.00      0.00      0.00
                                0.00      0.00      0.00



     Writing output data file dimer.in_vnscf_coords_6/qe.save/
 
     init_run     :      0.81s CPU      0.90s WALL (       1 calls)
     electrons    :     41.94s CPU     45.60s WALL (       1 calls)
     forces       :      0.42s CPU      0.45s WALL (       1 calls)
     stress       :      1.25s CPU      1.34s WALL (       1 calls)

     Called by init_run:
     wfcinit      :      0.27s CPU      0.30s WALL (       1 calls)
     wfcinit:atom :      0.01s CPU      0.01s WALL (      18 calls)
     wfcinit:wfcr :      0.24s CPU      0.27s WALL (      18 calls)
     potinit      :      0.14s CPU      0.14s WALL (       1 calls)
     hinit0       :      0.21s CPU      0.22s WALL (       1 calls)

     Called by electrons:
     c_bands      :     14.55s CPU     15.45s WALL (      18 calls)
     sum_band     :      5.58s CPU      6.28s WALL (      18 calls)
     v_of_rho     :      0.55s CPU      0.58s WALL (      19 calls)
     v_h          :      0.03s CPU      0.04s WALL (      19 calls)
     v_xc         :      0.57s CPU      0.60s WALL (      21 calls)
     newd         :      2.51s CPU      3.06s WALL (      19 calls)
     mix_rho      :     18.83s CPU     20.13s WALL (      18 calls)

     Called by c_bands:
     init_us_2    :      0.45s CPU      0.47s WALL (     702 calls)
     cegterg      :     12.61s CPU     13.50s WALL (     324 calls)

     Called by sum_band:
     sum_band:bec :      0.00s CPU      0.00s WALL (     324 calls)
     addusdens    :      3.30s CPU      3.83s WALL (      18 calls)

     Called by *egterg:
     h_psi        :      9.31s CPU     10.17s WALL (    1376 calls)
     s_psi        :      0.24s CPU      0.25s WALL (    1376 calls)
     g_psi        :      0.06s CPU      0.06s WALL (    1034 calls)
     cdiaghg      :      1.75s CPU      1.76s WALL (    1358 calls)
     cegterg:over :      0.60s CPU      0.62s WALL (    1034 calls)
     cegterg:upda :      0.48s CPU      0.48s WALL (    1034 calls)
     cegterg:last :      0.15s CPU      0.15s WALL (     324 calls)
     cdiaghg:chol :      0.14s CPU      0.14s WALL (    1358 calls)
     cdiaghg:inve :      0.07s CPU      0.07s WALL (    1358 calls)
     cdiaghg:para :      0.14s CPU      0.14s WALL (    2716 calls)

     Called by h_psi:
     h_psi:calbec :      0.33s CPU      0.35s WALL (    1376 calls)
     vloc_psi     :      8.66s CPU      9.48s WALL (    1376 calls)
     add_vuspsi   :      0.26s CPU      0.28s WALL (    1376 calls)

     General routines
     calbec       :      0.45s CPU      0.48s WALL (    1790 calls)
     fft          :      0.41s CPU      0.45s WALL (     270 calls)
     ffts         :     10.56s CPU     11.62s WALL (   12686 calls)
     fftw         :      9.42s CPU     10.31s WALL (   23176 calls)
     interpolate  :      0.05s CPU      0.05s WALL (      19 calls)
 
     Parallel routines
     fft_scatt_xy :      1.82s CPU      2.00s WALL (   36132 calls)
     fft_scatt_yz :      9.26s CPU     10.27s WALL (   36132 calls)
 
     PWSCF        :     44.59s CPU     51.83s WALL

 
   This run was terminated on:  16:20:44  25Jun2021            

=------------------------------------------------------------------------------=
   JOB DONE.
=------------------------------------------------------------------------------=
