
     Program PWSCF v.6.5 starts on 25Jun2021 at 16:25:41 

     This program is part of the open-source Quantum ESPRESSO suite
     for quantum simulation of materials; please cite
         "P. Giannozzi et al., J. Phys.:Condens. Matter 21 395502 (2009);
         "P. Giannozzi et al., J. Phys.:Condens. Matter 29 465901 (2017);
          URL http://www.quantum-espresso.org", 
     in publications or presentations arising from this work. More details at
     http://www.quantum-espresso.org/quote

     Parallel version (MPI), running on    12 processors

     MPI processes distributed on     1 nodes
     R & G space division:  proc/nbgrp/npool/nimage =      12
     Reading input from znse.in_vnscf_vol_2/qe.in
Warning: card &IONS ignored
Warning: card   ION_DYNAMICS='BFGS', ignored
Warning: card / ignored
Warning: card &CELL ignored
Warning: card  CELL_DYNAMICS = 'BFGS' ignored
Warning: card  CELL_DOFREE = 'ALL' ignored
Warning: card  CELL_FACTOR = 1.0 ignored
Warning: card / ignored
     Message from routine read_cards :
     DEPRECATED: no units specified in CELL_PARAMETERS card

     Current dimensions of program PWSCF are:
     Max number of different atomic species (ntypx) = 10
     Max number of k-points (npk) =  40000
     Max angular momentum in pseudopotentials (lmaxx) =  3
     Message from routine volume:
     axis vectors are left-handed
               file mg.pbesol.UPF: wavefunction(s)  3P renormalized

     Subspace diagonalization in iterative solution of the eigenvalue problem:
     one sub-group per band group will be used
     scalapack distributed-memory algorithm (size of sub-group:  3*  3 procs)

     Message from routine setup:
     using ibrav=0 with symmetry is DISCOURAGED, use correct ibrav instead
 
     Parallelization info
     --------------------
     sticks:   dense  smooth     PW     G-vecs:    dense   smooth      PW
     Min          80      58     17                 1681     1027     175
     Max          81      59     18                 1684     1029     178
     Sum         967     703    211                20179    12339    2109
 


     bravais-lattice index     =            0
     lattice parameter (alat)  =       7.5513  a.u.
     unit-cell volume          =     304.4710 (a.u.)^3
     number of atoms/cell      =            2
     number of atomic types    =            2
     number of electrons       =        16.00
     number of Kohn-Sham states=           12
     kinetic-energy cutoff     =      45.0000  Ry
     charge density cutoff     =     250.0000  Ry
     convergence threshold     =      1.0E-09
     mixing beta               =       0.3000
     number of iterations used =            8  local-TF  mixing
     Exchange-correlation= SLA  PW   PSX  PSC
                           (   1   4  10   8   0   0   0)
     A smooth kinetic-energy cutoff is imposed at      44.5000 Ry
     height of the smooth step-function =             800.0000 Ry
     width of the smooth step-function  =               1.0000 Ry


     celldm(1)=   7.551275  celldm(2)=   0.000000  celldm(3)=   0.000000
     celldm(4)=   0.000000  celldm(5)=   0.000000  celldm(6)=   0.000000

     crystal axes: (cart. coord. in units of alat)
               a(1) = (   0.707107   0.707107   0.000000 )  
               a(2) = (   0.707107   0.000000   0.707107 )  
               a(3) = (   0.000000   0.707107   0.707107 )  

     reciprocal axes: (cart. coord. in units 2 pi/alat)
               b(1) = (  0.707107  0.707107 -0.707107 )  
               b(2) = (  0.707107 -0.707107  0.707107 )  
               b(3) = ( -0.707107  0.707107  0.707107 )  


     PseudoPot. # 1 for Mg read from file:
     /home/kfg/codes/ThreeBodyTB.jl/src/../pseudo/gbrv_pbesol/mg.pbesol.UPF
     MD5 check sum: cbba17e5274afd115179030b10be074e
     Pseudo is Ultrasoft, Zval = 10.0
     Generated by new atomic code, or converted to UPF format
     Using radial grid of  821 points,  7 beta functions with: 
                l(1) =   0
                l(2) =   0
                l(3) =   0
                l(4) =   1
                l(5) =   1
                l(6) =   2
                l(7) =   2
     Q(r) pseudized with  8 coefficients,  rinner =    1.200   1.200   1.200
                                                       1.200   1.200

     PseudoPot. # 2 for S  read from file:
     /home/kfg/codes/ThreeBodyTB.jl/src/../pseudo/gbrv_pbesol/s.pbesol.UPF
     MD5 check sum: 0ccfa86ec6eb59065d10aaae963ef2a7
     Pseudo is Ultrasoft + core correction, Zval =  6.0
     Generated by new atomic code, or converted to UPF format
     Using radial grid of  907 points,  6 beta functions with: 
                l(1) =   0
                l(2) =   0
                l(3) =   1
                l(4) =   1
                l(5) =   2
                l(6) =   2
     Q(r) pseudized with  8 coefficients,  rinner =    1.300   1.300   1.300
                                                       1.300   1.300

     atomic species   valence    mass     pseudopotential
        Mg            10.00    24.31000     Mg( 1.00)
        S              6.00    32.06000     S ( 1.00)

     24 Sym. Ops. (no inversion) found


                                    s                        frac. trans.

      isym =  1     identity                                     

 cryst.   s( 1) = (     1          0          0      )
                  (     0          1          0      )
                  (     0          0          1      )

 cart.    s( 1) = (  1.0000000  0.0000000  0.0000000 )
                  (  0.0000000  1.0000000  0.0000000 )
                  (  0.0000000  0.0000000  1.0000000 )


      isym =  2     180 deg rotation - cart. axis [0,0,1]        

 cryst.   s( 2) = (    -1          0          0      )
                  (    -1          0          1      )
                  (    -1          1          0      )

 cart.    s( 2) = ( -1.0000000  0.0000000  0.0000000 )
                  (  0.0000000 -1.0000000  0.0000000 )
                  (  0.0000000  0.0000000  1.0000000 )


      isym =  3     180 deg rotation - cart. axis [0,1,0]        

 cryst.   s( 3) = (     0         -1          1      )
                  (     0         -1          0      )
                  (     1         -1          0      )

 cart.    s( 3) = ( -1.0000000  0.0000000  0.0000000 )
                  (  0.0000000  1.0000000  0.0000000 )
                  (  0.0000000  0.0000000 -1.0000000 )


      isym =  4     180 deg rotation - cart. axis [1,0,0]        

 cryst.   s( 4) = (     0          1         -1      )
                  (     1          0         -1      )
                  (     0          0         -1      )

 cart.    s( 4) = (  1.0000000  0.0000000  0.0000000 )
                  (  0.0000000 -1.0000000  0.0000000 )
                  (  0.0000000  0.0000000 -1.0000000 )


      isym =  5     120 deg rotation - cart. axis [-1,-1,-1]     

 cryst.   s( 5) = (     0          1          0      )
                  (     0          0          1      )
                  (     1          0          0      )

 cart.    s( 5) = (  0.0000000  1.0000000  0.0000000 )
                  (  0.0000000  0.0000000  1.0000000 )
                  (  1.0000000  0.0000000  0.0000000 )


      isym =  6     120 deg rotation - cart. axis [-1,1,1]       

 cryst.   s( 6) = (     0         -1          0      )
                  (     1         -1          0      )
                  (     0         -1          1      )

 cart.    s( 6) = (  0.0000000 -1.0000000  0.0000000 )
                  (  0.0000000  0.0000000  1.0000000 )
                  ( -1.0000000  0.0000000  0.0000000 )


      isym =  7     120 deg rotation - cart. axis [1,1,-1]       

 cryst.   s( 7) = (     1          0         -1      )
                  (     0          0         -1      )
                  (     0          1         -1      )

 cart.    s( 7) = (  0.0000000  1.0000000  0.0000000 )
                  (  0.0000000  0.0000000 -1.0000000 )
                  ( -1.0000000  0.0000000  0.0000000 )


      isym =  8     120 deg rotation - cart. axis [1,-1,1]       

 cryst.   s( 8) = (    -1          0          1      )
                  (    -1          1          0      )
                  (    -1          0          0      )

 cart.    s( 8) = (  0.0000000 -1.0000000  0.0000000 )
                  (  0.0000000  0.0000000 -1.0000000 )
                  (  1.0000000  0.0000000  0.0000000 )


      isym =  9     120 deg rotation - cart. axis [1,1,1]        

 cryst.   s( 9) = (     0          0          1      )
                  (     1          0          0      )
                  (     0          1          0      )

 cart.    s( 9) = (  0.0000000  0.0000000  1.0000000 )
                  (  1.0000000  0.0000000  0.0000000 )
                  (  0.0000000  1.0000000  0.0000000 )


      isym = 10     120 deg rotation - cart. axis [-1,1,-1]      

 cryst.   s(10) = (     0          0         -1      )
                  (     0          1         -1      )
                  (     1          0         -1      )

 cart.    s(10) = (  0.0000000  0.0000000  1.0000000 )
                  ( -1.0000000  0.0000000  0.0000000 )
                  (  0.0000000 -1.0000000  0.0000000 )


      isym = 11     120 deg rotation - cart. axis [1,-1,-1]      

 cryst.   s(11) = (    -1          1          0      )
                  (    -1          0          0      )
                  (    -1          0          1      )

 cart.    s(11) = (  0.0000000  0.0000000 -1.0000000 )
                  ( -1.0000000  0.0000000  0.0000000 )
                  (  0.0000000  1.0000000  0.0000000 )


      isym = 12     120 deg rotation - cart. axis [-1,-1,1]      

 cryst.   s(12) = (     1         -1          0      )
                  (     0         -1          1      )
                  (     0         -1          0      )

 cart.    s(12) = (  0.0000000  0.0000000 -1.0000000 )
                  (  1.0000000  0.0000000  0.0000000 )
                  (  0.0000000 -1.0000000  0.0000000 )


      isym = 13     inv. 180 deg rotation - cart. axis [1,1,0]   

 cryst.   s(13) = (    -1          0          0      )
                  (    -1          1          0      )
                  (    -1          0          1      )

 cart.    s(13) = (  0.0000000 -1.0000000  0.0000000 )
                  ( -1.0000000  0.0000000  0.0000000 )
                  (  0.0000000  0.0000000  1.0000000 )


      isym = 14     inv. 180 deg rotation - cart. axis [1,-1,0]  

 cryst.   s(14) = (     1          0          0      )
                  (     0          0          1      )
                  (     0          1          0      )

 cart.    s(14) = (  0.0000000  1.0000000  0.0000000 )
                  (  1.0000000  0.0000000  0.0000000 )
                  (  0.0000000  0.0000000  1.0000000 )


      isym = 15     inv.  90 deg rotation - cart. axis [0,0,-1]  

 cryst.   s(15) = (     0         -1          1      )
                  (     1         -1          0      )
                  (     0         -1          0      )

 cart.    s(15) = (  0.0000000 -1.0000000  0.0000000 )
                  (  1.0000000  0.0000000  0.0000000 )
                  (  0.0000000  0.0000000 -1.0000000 )


      isym = 16     inv.  90 deg rotation - cart. axis [0,0,1]   

 cryst.   s(16) = (     0          1         -1      )
                  (     0          0         -1      )
                  (     1          0         -1      )

 cart.    s(16) = (  0.0000000  1.0000000  0.0000000 )
                  ( -1.0000000  0.0000000  0.0000000 )
                  (  0.0000000  0.0000000 -1.0000000 )


      isym = 17     inv. 180 deg rotation - cart. axis [1,0,1]   

 cryst.   s(17) = (     1         -1          0      )
                  (     0         -1          0      )
                  (     0         -1          1      )

 cart.    s(17) = (  0.0000000  0.0000000 -1.0000000 )
                  (  0.0000000  1.0000000  0.0000000 )
                  ( -1.0000000  0.0000000  0.0000000 )


      isym = 18     inv. 180 deg rotation - cart. axis [-1,0,1]  

 cryst.   s(18) = (     0          0          1      )
                  (     0          1          0      )
                  (     1          0          0      )

 cart.    s(18) = (  0.0000000  0.0000000  1.0000000 )
                  (  0.0000000  1.0000000  0.0000000 )
                  (  1.0000000  0.0000000  0.0000000 )


      isym = 19     inv.  90 deg rotation - cart. axis [0,1,0]   

 cryst.   s(19) = (    -1          1          0      )
                  (    -1          0          1      )
                  (    -1          0          0      )

 cart.    s(19) = (  0.0000000  0.0000000 -1.0000000 )
                  (  0.0000000 -1.0000000  0.0000000 )
                  (  1.0000000  0.0000000  0.0000000 )


      isym = 20     inv.  90 deg rotation - cart. axis [0,-1,0]  

 cryst.   s(20) = (     0          0         -1      )
                  (     1          0         -1      )
                  (     0          1         -1      )

 cart.    s(20) = (  0.0000000  0.0000000  1.0000000 )
                  (  0.0000000 -1.0000000  0.0000000 )
                  ( -1.0000000  0.0000000  0.0000000 )


      isym = 21     inv. 180 deg rotation - cart. axis [0,1,1]   

 cryst.   s(21) = (     1          0         -1      )
                  (     0          1         -1      )
                  (     0          0         -1      )

 cart.    s(21) = (  1.0000000  0.0000000  0.0000000 )
                  (  0.0000000  0.0000000 -1.0000000 )
                  (  0.0000000 -1.0000000  0.0000000 )


      isym = 22     inv. 180 deg rotation - cart. axis [0,1,-1]  

 cryst.   s(22) = (     0          1          0      )
                  (     1          0          0      )
                  (     0          0          1      )

 cart.    s(22) = (  1.0000000  0.0000000  0.0000000 )
                  (  0.0000000  0.0000000  1.0000000 )
                  (  0.0000000  1.0000000  0.0000000 )


      isym = 23     inv.  90 deg rotation - cart. axis [-1,0,0]  

 cryst.   s(23) = (    -1          0          1      )
                  (    -1          0          0      )
                  (    -1          1          0      )

 cart.    s(23) = ( -1.0000000  0.0000000  0.0000000 )
                  (  0.0000000  0.0000000 -1.0000000 )
                  (  0.0000000  1.0000000  0.0000000 )


      isym = 24     inv.  90 deg rotation - cart. axis [1,0,0]   

 cryst.   s(24) = (     0         -1          0      )
                  (     0         -1          1      )
                  (     1         -1          0      )

 cart.    s(24) = ( -1.0000000  0.0000000  0.0000000 )
                  (  0.0000000  0.0000000  1.0000000 )
                  (  0.0000000 -1.0000000  0.0000000 )


   Cartesian axes

     site n.     atom                  positions (alat units)
         1           Mg  tau(   1) = (   0.0000000   0.0000000   0.0000000  )
         2           S   tau(   2) = (   0.3535534   0.3535534   0.3535534  )

   Crystallographic axes

     site n.     atom                  positions (cryst. coord.)
         1           Mg  tau(   1) = (  0.0000000  0.0000000  0.0000000  )
         2           S   tau(   2) = (  0.2500000  0.2500000  0.2500000  )

     number of k points=    47  Gaussian smearing, width (Ry)=  0.0100
                       cart. coord. in units 2pi/alat
        k(    1) = (   0.0000000   0.0000000   0.0000000), wk =   0.0020000
        k(    2) = (  -0.0707107   0.0707107   0.0707107), wk =   0.0160000
        k(    3) = (  -0.1414214   0.1414214   0.1414214), wk =   0.0160000
        k(    4) = (  -0.2121320   0.2121320   0.2121320), wk =   0.0160000
        k(    5) = (  -0.2828427   0.2828427   0.2828427), wk =   0.0160000
        k(    6) = (   0.3535534  -0.3535534  -0.3535534), wk =   0.0080000
        k(    7) = (   0.0000000   0.0000000   0.1414214), wk =   0.0120000
        k(    8) = (  -0.0707107   0.0707107   0.2121320), wk =   0.0480000
        k(    9) = (  -0.1414214   0.1414214   0.2828427), wk =   0.0480000
        k(   10) = (  -0.2121320   0.2121320   0.3535534), wk =   0.0480000
        k(   11) = (   0.4242641  -0.4242641  -0.2828427), wk =   0.0480000
        k(   12) = (   0.3535534  -0.3535534  -0.2121320), wk =   0.0480000
        k(   13) = (   0.2828427  -0.2828427  -0.1414214), wk =   0.0480000
        k(   14) = (   0.2121320  -0.2121320  -0.0707107), wk =   0.0480000
        k(   15) = (   0.1414214  -0.1414214   0.0000000), wk =   0.0240000
        k(   16) = (   0.0000000   0.0000000   0.2828427), wk =   0.0120000
        k(   17) = (  -0.0707107   0.0707107   0.3535534), wk =   0.0480000
        k(   18) = (  -0.1414214   0.1414214   0.4242641), wk =   0.0480000
        k(   19) = (   0.4949747  -0.4949747  -0.2121320), wk =   0.0480000
        k(   20) = (   0.4242641  -0.4242641  -0.1414214), wk =   0.0480000
        k(   21) = (   0.3535534  -0.3535534  -0.0707107), wk =   0.0480000
        k(   22) = (   0.2828427  -0.2828427   0.0000000), wk =   0.0240000
        k(   23) = (   0.0000000   0.0000000   0.4242641), wk =   0.0120000
        k(   24) = (  -0.0707107   0.0707107   0.4949747), wk =   0.0480000
        k(   25) = (   0.5656854  -0.5656854  -0.1414214), wk =   0.0480000
        k(   26) = (   0.4949747  -0.4949747  -0.0707107), wk =   0.0480000
        k(   27) = (   0.4242641  -0.4242641  -0.0000000), wk =   0.0240000
        k(   28) = (   0.0000000   0.0000000   0.5656854), wk =   0.0120000
        k(   29) = (   0.6363961  -0.6363961  -0.0707107), wk =   0.0480000
        k(   30) = (   0.5656854  -0.5656854   0.0000000), wk =   0.0240000
        k(   31) = (   0.0000000   0.0000000  -0.7071068), wk =   0.0060000
        k(   32) = (   0.0000000   0.1414214   0.2828427), wk =   0.0480000
        k(   33) = (  -0.0707107   0.2121320   0.3535534), wk =   0.0960000
        k(   34) = (   0.5656854  -0.4242641  -0.2828427), wk =   0.0960000
        k(   35) = (   0.4949747  -0.3535534  -0.2121320), wk =   0.0480000
        k(   36) = (  -0.0000000   0.1414214   0.4242641), wk =   0.0480000
        k(   37) = (   0.6363961  -0.4949747  -0.2121320), wk =   0.0960000
        k(   38) = (   0.5656854  -0.4242641  -0.1414214), wk =   0.0960000
        k(   39) = (   0.4949747  -0.3535534  -0.0707107), wk =   0.0960000
        k(   40) = (   0.4242641  -0.2828427   0.0000000), wk =   0.0480000
        k(   41) = (   0.7071068  -0.5656854  -0.1414214), wk =   0.0480000
        k(   42) = (   0.6363961  -0.4949747  -0.0707107), wk =   0.0960000
        k(   43) = (   0.5656854  -0.4242641  -0.0000000), wk =   0.0480000
        k(   44) = (   0.0000000   0.1414214  -0.7071068), wk =   0.0240000
        k(   45) = (   0.7071068  -0.4242641  -0.1414214), wk =   0.0480000
        k(   46) = (   0.6363961  -0.3535534  -0.0707107), wk =   0.0480000
        k(   47) = (   0.0000000   0.2828427  -0.7071068), wk =   0.0240000

                       cryst. coord.
        k(    1) = (   0.0000000   0.0000000   0.0000000), wk =   0.0020000
        k(    2) = (   0.0000000   0.0000000   0.1000000), wk =   0.0160000
        k(    3) = (   0.0000000   0.0000000   0.2000000), wk =   0.0160000
        k(    4) = (   0.0000000   0.0000000   0.3000000), wk =   0.0160000
        k(    5) = (   0.0000000   0.0000000   0.4000000), wk =   0.0160000
        k(    6) = (   0.0000000   0.0000000  -0.5000000), wk =   0.0080000
        k(    7) = (   0.0000000   0.1000000   0.1000000), wk =   0.0120000
        k(    8) = (   0.0000000   0.1000000   0.2000000), wk =   0.0480000
        k(    9) = (   0.0000000   0.1000000   0.3000000), wk =   0.0480000
        k(   10) = (   0.0000000   0.1000000   0.4000000), wk =   0.0480000
        k(   11) = (   0.0000000   0.1000000  -0.5000000), wk =   0.0480000
        k(   12) = (   0.0000000   0.1000000  -0.4000000), wk =   0.0480000
        k(   13) = (   0.0000000   0.1000000  -0.3000000), wk =   0.0480000
        k(   14) = (   0.0000000   0.1000000  -0.2000000), wk =   0.0480000
        k(   15) = (   0.0000000   0.1000000  -0.1000000), wk =   0.0240000
        k(   16) = (   0.0000000   0.2000000   0.2000000), wk =   0.0120000
        k(   17) = (   0.0000000   0.2000000   0.3000000), wk =   0.0480000
        k(   18) = (   0.0000000   0.2000000   0.4000000), wk =   0.0480000
        k(   19) = (   0.0000000   0.2000000  -0.5000000), wk =   0.0480000
        k(   20) = (   0.0000000   0.2000000  -0.4000000), wk =   0.0480000
        k(   21) = (   0.0000000   0.2000000  -0.3000000), wk =   0.0480000
        k(   22) = (   0.0000000   0.2000000  -0.2000000), wk =   0.0240000
        k(   23) = (   0.0000000   0.3000000   0.3000000), wk =   0.0120000
        k(   24) = (   0.0000000   0.3000000   0.4000000), wk =   0.0480000
        k(   25) = (   0.0000000   0.3000000  -0.5000000), wk =   0.0480000
        k(   26) = (   0.0000000   0.3000000  -0.4000000), wk =   0.0480000
        k(   27) = (   0.0000000   0.3000000  -0.3000000), wk =   0.0240000
        k(   28) = (   0.0000000   0.4000000   0.4000000), wk =   0.0120000
        k(   29) = (   0.0000000   0.4000000  -0.5000000), wk =   0.0480000
        k(   30) = (   0.0000000   0.4000000  -0.4000000), wk =   0.0240000
        k(   31) = (   0.0000000  -0.5000000  -0.5000000), wk =   0.0060000
        k(   32) = (   0.1000000   0.2000000   0.3000000), wk =   0.0480000
        k(   33) = (   0.1000000   0.2000000   0.4000000), wk =   0.0960000
        k(   34) = (   0.1000000   0.2000000  -0.5000000), wk =   0.0960000
        k(   35) = (   0.1000000   0.2000000  -0.4000000), wk =   0.0480000
        k(   36) = (   0.1000000   0.3000000   0.4000000), wk =   0.0480000
        k(   37) = (   0.1000000   0.3000000  -0.5000000), wk =   0.0960000
        k(   38) = (   0.1000000   0.3000000  -0.4000000), wk =   0.0960000
        k(   39) = (   0.1000000   0.3000000  -0.3000000), wk =   0.0960000
        k(   40) = (   0.1000000   0.3000000  -0.2000000), wk =   0.0480000
        k(   41) = (   0.1000000   0.4000000  -0.5000000), wk =   0.0480000
        k(   42) = (   0.1000000   0.4000000  -0.4000000), wk =   0.0960000
        k(   43) = (   0.1000000   0.4000000  -0.3000000), wk =   0.0480000
        k(   44) = (   0.1000000  -0.5000000  -0.4000000), wk =   0.0240000
        k(   45) = (   0.2000000   0.4000000  -0.4000000), wk =   0.0480000
        k(   46) = (   0.2000000   0.4000000  -0.3000000), wk =   0.0480000
        k(   47) = (   0.2000000  -0.5000000  -0.3000000), wk =   0.0240000

     Dense  grid:    20179 G-vectors     FFT dimensions: (  40,  40,  40)

     Smooth grid:    12339 G-vectors     FFT dimensions: (  36,  36,  36)

     Dynamical RAM for                 wfc:       0.02 MB

     Dynamical RAM for     wfc (w. buffer):       1.13 MB

     Dynamical RAM for           str. fact:       0.05 MB

     Dynamical RAM for           local pot:       0.00 MB

     Dynamical RAM for          nlocal pot:       0.07 MB

     Dynamical RAM for                qrad:       4.07 MB

     Dynamical RAM for          rho,v,vnew:       0.22 MB

     Dynamical RAM for               rhoin:       0.07 MB

     Dynamical RAM for            rho*nmix:       0.41 MB

     Dynamical RAM for           G-vectors:       0.10 MB

     Dynamical RAM for          h,s,v(r/c):       0.01 MB

     Dynamical RAM for          <psi|beta>:       0.01 MB

     Dynamical RAM for                 psi:       0.09 MB

     Dynamical RAM for                hpsi:       0.09 MB

     Dynamical RAM for                spsi:       0.09 MB

     Dynamical RAM for      wfcinit/wfcrot:       0.05 MB

     Dynamical RAM for           addusdens:       5.29 MB

     Dynamical RAM for          addusforce:       5.39 MB

     Dynamical RAM for         addusstress:       5.65 MB

     Estimated static dynamical RAM per process >       6.46 MB

     Estimated max dynamical RAM per process >      12.11 MB

     Estimated total dynamical RAM >     145.31 MB

     Initial potential from superposition of free atoms

     starting charge   15.69974, renormalised to   16.00000
     Starting wfcs are   12 randomized atomic wfcs

     total cpu time spent up to now is        0.3 secs

     Self-consistent Calculation

     iteration #  1     ecut=    45.00 Ry     beta= 0.30
     Davidson diagonalization with overlap
     ethr =  1.00E-02,  avg # of iterations =  4.5

     total cpu time spent up to now is        1.0 secs

     total energy              =    -149.37671454 Ry
     Harris-Foulkes estimate   =    -149.40678302 Ry
     estimated scf accuracy    <       0.17561811 Ry

     iteration #  2     ecut=    45.00 Ry     beta= 0.30
     Davidson diagonalization with overlap
     ethr =  1.10E-03,  avg # of iterations =  1.0

     total cpu time spent up to now is        1.4 secs

     total energy              =    -149.32066643 Ry
     Harris-Foulkes estimate   =    -149.38052553 Ry
     estimated scf accuracy    <       0.10686757 Ry

     iteration #  3     ecut=    45.00 Ry     beta= 0.30
     Davidson diagonalization with overlap
     ethr =  6.68E-04,  avg # of iterations =  2.0

     total cpu time spent up to now is        1.8 secs

     total energy              =    -149.33532574 Ry
     Harris-Foulkes estimate   =    -149.33832268 Ry
     estimated scf accuracy    <       0.00771147 Ry

     iteration #  4     ecut=    45.00 Ry     beta= 0.30
     Davidson diagonalization with overlap
     ethr =  4.82E-05,  avg # of iterations =  3.3

     total cpu time spent up to now is        2.4 secs

     total energy              =    -149.33465959 Ry
     Harris-Foulkes estimate   =    -149.33572656 Ry
     estimated scf accuracy    <       0.00180748 Ry

     iteration #  5     ecut=    45.00 Ry     beta= 0.30
     Davidson diagonalization with overlap
     ethr =  1.13E-05,  avg # of iterations =  2.3

     total cpu time spent up to now is        2.9 secs

     total energy              =    -149.33484865 Ry
     Harris-Foulkes estimate   =    -149.33483222 Ry
     estimated scf accuracy    <       0.00008957 Ry

     iteration #  6     ecut=    45.00 Ry     beta= 0.30
     Davidson diagonalization with overlap
     ethr =  5.60E-07,  avg # of iterations =  2.3

     total cpu time spent up to now is        3.4 secs

     total energy              =    -149.33485397 Ry
     Harris-Foulkes estimate   =    -149.33486583 Ry
     estimated scf accuracy    <       0.00003896 Ry

     iteration #  7     ecut=    45.00 Ry     beta= 0.30
     Davidson diagonalization with overlap
     ethr =  2.44E-07,  avg # of iterations =  2.0

     total cpu time spent up to now is        3.8 secs

     total energy              =    -149.33486129 Ry
     Harris-Foulkes estimate   =    -149.33486074 Ry
     estimated scf accuracy    <       0.00000123 Ry

     iteration #  8     ecut=    45.00 Ry     beta= 0.30
     Davidson diagonalization with overlap
     ethr =  7.68E-09,  avg # of iterations =  3.0

     total cpu time spent up to now is        4.4 secs

     total energy              =    -149.33486129 Ry
     Harris-Foulkes estimate   =    -149.33486172 Ry
     estimated scf accuracy    <       0.00000134 Ry

     iteration #  9     ecut=    45.00 Ry     beta= 0.30
     Davidson diagonalization with overlap
     ethr =  7.68E-09,  avg # of iterations =  2.0

     total cpu time spent up to now is        4.8 secs

     total energy              =    -149.33486145 Ry
     Harris-Foulkes estimate   =    -149.33486145 Ry
     estimated scf accuracy    <       0.00000005 Ry

     iteration # 10     ecut=    45.00 Ry     beta= 0.30
     Davidson diagonalization with overlap
     ethr =  3.05E-10,  avg # of iterations =  2.1

     total cpu time spent up to now is        5.3 secs

     total energy              =    -149.33486146 Ry
     Harris-Foulkes estimate   =    -149.33486146 Ry
     estimated scf accuracy    <          9.4E-09 Ry

     iteration # 11     ecut=    45.00 Ry     beta= 0.30
     Davidson diagonalization with overlap
     ethr =  5.86E-11,  avg # of iterations =  2.1

     total cpu time spent up to now is        5.8 secs

     End of self-consistent calculation

          k = 0.0000 0.0000 0.0000 (  1471 PWs)   bands (ev):

   -70.4224 -37.3865 -37.3865 -37.3865  -8.2954   2.9912   2.9912   2.9912
     6.3134  10.8469  10.8469  10.8469

     occupation numbers 
     1.0000   1.0000   1.0000   1.0000   1.0000   1.0000   1.0000   1.0000
     0.0000   0.0000   0.0000   0.0000

          k =-0.0707 0.0707 0.0707 (  1522 PWs)   bands (ev):

   -70.4224 -37.3868 -37.3866 -37.3866  -8.2371   2.5076   2.9558   2.9558
     6.7847  10.7095  10.9711  10.9711

     occupation numbers 
     1.0000   1.0000   1.0000   1.0000   1.0000   1.0000   1.0000   1.0000
     0.0000   0.0000   0.0000   0.0000

          k =-0.1414 0.1414 0.1414 (  1540 PWs)   bands (ev):

   -70.4224 -37.3875 -37.3867 -37.3867  -8.0767   1.5665   2.8672   2.8672
     7.5803  10.5891  11.1186  11.1186

     occupation numbers 
     1.0000   1.0000   1.0000   1.0000   1.0000   1.0000   1.0000   1.0000
     0.0000   0.0000   0.0000   0.0000

          k =-0.2121 0.2121 0.2121 (  1552 PWs)   bands (ev):

   -70.4224 -37.3883 -37.3868 -37.3868  -7.8611   0.6641   2.7655   2.7655
     7.9899  10.8850  10.9143  10.9143

     occupation numbers 
     1.0000   1.0000   1.0000   1.0000   1.0000   1.0000   1.0000   1.0000
     0.0000   0.0000   0.0000   0.0000

          k =-0.2828 0.2828 0.2828 (  1537 PWs)   bands (ev):

   -70.4224 -37.3890 -37.3869 -37.3869  -7.6689   0.0264   2.6886   2.6886
     8.0244  10.6293  10.6293  11.3021

     occupation numbers 
     1.0000   1.0000   1.0000   1.0000   1.0000   1.0000   1.0000   1.0000
     0.0000   0.0000   0.0000   0.0000

          k = 0.3536-0.3536-0.3536 (  1538 PWs)   bands (ev):

   -70.4224 -37.3893 -37.3870 -37.3870  -7.5905  -0.2052   2.6604   2.6604
     8.0009  10.5165  10.5165  11.4410

     occupation numbers 
     1.0000   1.0000   1.0000   1.0000   1.0000   1.0000   1.0000   1.0000
     0.0000   0.0000   0.0000   0.0000

          k = 0.0000 0.0000 0.1414 (  1523 PWs)   bands (ev):

   -70.4224 -37.3868 -37.3866 -37.3866  -8.2176   2.5011   2.8693   2.8693
     6.9422  10.4767  11.1231  11.1231

     occupation numbers 
     1.0000   1.0000   1.0000   1.0000   1.0000   1.0000   1.0000   1.0000
     0.0000   0.0000   0.0000   0.0000

          k =-0.0707 0.0707 0.2121 (  1535 PWs)   bands (ev):

   -70.4224 -37.3873 -37.3867 -37.3867  -8.0913   1.7971   2.7435   2.7934
     7.6297  10.2261  11.2044  11.3897

     occupation numbers 
     1.0000   1.0000   1.0000   1.0000   1.0000   1.0000   1.0000   1.0000
     0.0000   0.0000   0.0000   0.0000

          k =-0.1414 0.1414 0.2828 (  1553 PWs)   bands (ev):

   -70.4224 -37.3881 -37.3869 -37.3869  -7.8932   0.9412   2.6308   2.6706
     8.1882  10.2937  10.7937  11.3530

     occupation numbers 
     1.0000   1.0000   1.0000   1.0000   1.0000   1.0000   1.0000   1.0000
     0.0000   0.0000   0.0000   0.0000

          k =-0.2121 0.2121 0.3536 (  1557 PWs)   bands (ev):

   -70.4224 -37.3888 -37.3870 -37.3870  -7.6906   0.2516   2.5176   2.5701
     8.3382  10.0831  11.0508  11.2327

     occupation numbers 
     1.0000   1.0000   1.0000   1.0000   1.0000   1.0000   1.0000   1.0000
     0.0000   0.0000   0.0000   0.0000

          k = 0.4243-0.4243-0.2828 (  1543 PWs)   bands (ev):

   -70.4224 -37.3892 -37.3871 -37.3870  -7.5710  -0.1007   2.3929   2.5789
     8.3560   9.8944  10.8082  11.7659

     occupation numbers 
     1.0000   1.0000   1.0000   1.0000   1.0000   1.0000   1.0000   1.0000
     0.0000   0.0000   0.0000   0.0000

          k = 0.3536-0.3536-0.2121 (  1541 PWs)   bands (ev):

   -70.4224 -37.3891 -37.3872 -37.3870  -7.5972  -0.0252   2.3390   2.6532
     8.3947   9.9797  10.7650  11.6844

     occupation numbers 
     1.0000   1.0000   1.0000   1.0000   1.0000   1.0000   1.0000   1.0000
     0.0000   0.0000   0.0000   0.0000

          k = 0.2828-0.2828-0.1414 (  1551 PWs)   bands (ev):

   -70.4224 -37.3886 -37.3871 -37.3868  -7.7545   0.4549   2.3775   2.7697
     8.3994  10.3072  10.9467  11.0965

     occupation numbers 
     1.0000   1.0000   1.0000   1.0000   1.0000   1.0000   1.0000   1.0000
     0.0000   0.0000   0.0000   0.0000

          k = 0.2121-0.2121-0.0707 (  1541 PWs)   bands (ev):

   -70.4224 -37.3878 -37.3869 -37.3867  -7.9649   1.2085   2.5114   2.8889
     8.0946  10.4225  10.9536  11.2226

     occupation numbers 
     1.0000   1.0000   1.0000   1.0000   1.0000   1.0000   1.0000   1.0000
     0.0000   0.0000   0.0000   0.0000

          k = 0.1414-0.1414 0.0000 (  1538 PWs)   bands (ev):

   -70.4224 -37.3871 -37.3867 -37.3866  -8.1446   2.0068   2.7319   2.9628
     7.3650  10.4879  11.1124  11.1660

     occupation numbers 
     1.0000   1.0000   1.0000   1.0000   1.0000   1.0000   1.0000   1.0000
     0.0000   0.0000   0.0000   0.0000

          k = 0.0000 0.0000 0.2828 (  1535 PWs)   bands (ev):

   -70.4224 -37.3875 -37.3869 -37.3869  -8.0045   1.6219   2.5767   2.5767
     7.9336   9.7450  11.3570  11.8748

     occupation numbers 
     1.0000   1.0000   1.0000   1.0000   1.0000   1.0000   1.0000   1.0000
     0.0000   0.0000   0.0000   0.0000

          k =-0.0707 0.0707 0.3536 (  1551 PWs)   bands (ev):

   -70.4224 -37.3880 -37.3871 -37.3870  -7.8407   1.0652   2.3993   2.4340
     8.1777   9.5983  10.9238  12.1440

     occupation numbers 
     1.0000   1.0000   1.0000   1.0000   1.0000   1.0000   1.0000   1.0000
     0.0000   0.0000   0.0000   0.0000

          k =-0.1414 0.1414 0.4243 (  1544 PWs)   bands (ev):

   -70.4224 -37.3886 -37.3873 -37.3872  -7.6535   0.5076   2.1337   2.3622
     8.2854   9.8134  10.8112  11.9481

     occupation numbers 
     1.0000   1.0000   1.0000   1.0000   1.0000   1.0000   1.0000   1.0000
     0.0000   0.0000   0.0000   0.0000

          k = 0.4950-0.4950-0.2121 (  1559 PWs)   bands (ev):

   -70.4223 -37.3890 -37.3875 -37.3872  -7.5179   0.1625   1.8573   2.3809
     8.4125   9.7972  11.4289  11.6266

     occupation numbers 
     1.0000   1.0000   1.0000   1.0000   1.0000   1.0000   1.0000   1.0000
     0.0000   0.0000   0.0000   0.0000

          k = 0.4243-0.4243-0.1414 (  1555 PWs)   bands (ev):

   -70.4223 -37.3890 -37.3876 -37.3871  -7.4996   0.1328   1.6860   2.4843
     8.7175   9.6730  11.4210  11.7719

     occupation numbers 
     1.0000   1.0000   1.0000   1.0000   1.0000   1.0000   1.0000   1.0000
     0.0000   0.0000   0.0000   0.0000

          k = 0.3536-0.3536-0.0707 (  1554 PWs)   bands (ev):

   -70.4224 -37.3887 -37.3876 -37.3870  -7.6079   0.4000   1.7119   2.6416
     9.1645   9.6077  11.1058  11.4028

     occupation numbers 
     1.0000   1.0000   1.0000   1.0000   1.0000   1.0000   1.0000   1.0000
     0.0000   0.0000   0.0000   0.0000

          k = 0.2828-0.2828 0.0000 (  1554 PWs)   bands (ev):

   -70.4224 -37.3882 -37.3873 -37.3868  -7.7884   0.8095   2.0097   2.7985
     8.9090  10.0276  10.6148  11.4735

     occupation numbers 
     1.0000   1.0000   1.0000   1.0000   1.0000   1.0000   1.0000   1.0000
     0.0000   0.0000   0.0000   0.0000

          k = 0.0000 0.0000 0.4243 (  1556 PWs)   bands (ev):

   -70.4224 -37.3883 -37.3872 -37.3872  -7.7190   0.8404   2.2570   2.2570
     7.7360   9.1339  11.7319  12.9555

     occupation numbers 
     1.0000   1.0000   1.0000   1.0000   1.0000   1.0000   1.0000   1.0000
     0.0000   0.0000   0.0000   0.0000

          k =-0.0707 0.0707 0.4950 (  1561 PWs)   bands (ev):

   -70.4224 -37.3887 -37.3874 -37.3873  -7.5685   0.5150   2.0036   2.1571
     7.5463   9.1075  11.9455  13.1537

     occupation numbers 
     1.0000   1.0000   1.0000   1.0000   1.0000   1.0000   1.0000   1.0000
     0.0000   0.0000   0.0000   0.0000

          k = 0.5657-0.5657-0.1414 (  1554 PWs)   bands (ev):

   -70.4223 -37.3889 -37.3877 -37.3874  -7.4479   0.3480   1.5578   2.1610
     7.6686   9.5718  11.9078  12.8386

     occupation numbers 
     1.0000   1.0000   1.0000   1.0000   1.0000   1.0000   1.0000   1.0000
     0.0000   0.0000   0.0000   0.0000

          k = 0.4950-0.4950-0.0707 (  1555 PWs)   bands (ev):

   -70.4223 -37.3888 -37.3880 -37.3873  -7.4108   0.4154   1.1362   2.2673
     8.0150  10.1464  11.9178  12.4377

     occupation numbers 
     1.0000   1.0000   1.0000   1.0000   1.0000   1.0000   1.0000   1.0000
     0.0000   0.0000   0.0000   0.0000

          k = 0.4243-0.4243-0.0000 (  1546 PWs)   bands (ev):

   -70.4223 -37.3887 -37.3880 -37.3871  -7.4744   0.4779   1.1462   2.4471
     8.5813  10.2191  11.3950  11.9914

     occupation numbers 
     1.0000   1.0000   1.0000   1.0000   1.0000   1.0000   1.0000   1.0000
     0.0000   0.0000   0.0000   0.0000

          k = 0.0000 0.0000 0.5657 (  1552 PWs)   bands (ev):

   -70.4223 -37.3890 -37.3875 -37.3875  -7.4659   0.3138   2.0242   2.0242
     7.0001   8.6908  13.2043  14.2341

     occupation numbers 
     1.0000   1.0000   1.0000   1.0000   1.0000   1.0000   1.0000   1.0000
     0.0000   0.0000   0.0000   0.0000

          k = 0.6364-0.6364-0.0707 (  1564 PWs)   bands (ev):

   -70.4223 -37.3891 -37.3876 -37.3875  -7.3872   0.2237   1.7610   1.9990
     6.9944   8.8176  13.3425  14.2490

     occupation numbers 
     1.0000   1.0000   1.0000   1.0000   1.0000   1.0000   1.0000   1.0000
     0.0000   0.0000   0.0000   0.0000

          k = 0.5657-0.5657 0.0000 (  1554 PWs)   bands (ev):

   -70.4223 -37.3890 -37.3879 -37.3875  -7.3663   0.3562   1.2780   2.0875
     7.3975   9.4693  12.8944  13.5110

     occupation numbers 
     1.0000   1.0000   1.0000   1.0000   1.0000   1.0000   1.0000   1.0000
     0.0000   0.0000   0.0000   0.0000

          k = 0.0000 0.0000-0.7071 (  1572 PWs)   bands (ev):

   -70.4223 -37.3893 -37.3876 -37.3876  -7.3630   0.1265   1.9403   1.9403
     6.6974   8.5327  14.0681  15.2011

     occupation numbers 
     1.0000   1.0000   1.0000   1.0000   1.0000   1.0000   1.0000   1.0000
     0.0000   0.0000   0.0000   0.0000

          k = 0.0000 0.1414 0.2828 (  1545 PWs)   bands (ev):

   -70.4224 -37.3878 -37.3870 -37.3868  -7.9457   1.2946   2.4057   2.7507
     8.2248   9.9863  10.8258  11.7444

     occupation numbers 
     1.0000   1.0000   1.0000   1.0000   1.0000   1.0000   1.0000   1.0000
     0.0000   0.0000   0.0000   0.0000

          k =-0.0707 0.2121 0.3536 (  1555 PWs)   bands (ev):

   -70.4224 -37.3884 -37.3873 -37.3869  -7.7518   0.6922   2.1264   2.6377
     8.6872   9.9387  10.5311  11.6854

     occupation numbers 
     1.0000   1.0000   1.0000   1.0000   1.0000   1.0000   1.0000   1.0000
     0.0000   0.0000   0.0000   0.0000

          k = 0.5657-0.4243-0.2828 (  1551 PWs)   bands (ev):

   -70.4224 -37.3889 -37.3874 -37.3871  -7.5813   0.2131   1.9776   2.5085
     8.8316   9.5420  11.2340  11.4665

     occupation numbers 
     1.0000   1.0000   1.0000   1.0000   1.0000   1.0000   1.0000   1.0000
     0.0000   0.0000   0.0000   0.0000

          k = 0.4950-0.3536-0.2121 (  1544 PWs)   bands (ev):

   -70.4223 -37.3891 -37.3875 -37.3871  -7.5123   0.0316   1.9338   2.4522
     8.8921   9.3286  11.3140  11.8095

     occupation numbers 
     1.0000   1.0000   1.0000   1.0000   1.0000   1.0000   1.0000   1.0000
     0.0000   0.0000   0.0000   0.0000

          k =-0.0000 0.1414 0.4243 (  1559 PWs)   bands (ev):

   -70.4224 -37.3884 -37.3873 -37.3871  -7.6823   0.7138   2.0535   2.3478
     8.1477   9.5187  10.9106  12.7658

     occupation numbers 
     1.0000   1.0000   1.0000   1.0000   1.0000   1.0000   1.0000   1.0000
     0.0000   0.0000   0.0000   0.0000

          k = 0.6364-0.4950-0.2121 (  1555 PWs)   bands (ev):

   -70.4223 -37.3888 -37.3876 -37.3873  -7.5269   0.4253   1.7161   2.2161
     8.2366   9.8196  10.8396  12.6316

     occupation numbers 
     1.0000   1.0000   1.0000   1.0000   1.0000   1.0000   1.0000   1.0000
     0.0000   0.0000   0.0000   0.0000

          k = 0.5657-0.4243-0.1414 (  1552 PWs)   bands (ev):

   -70.4223 -37.3889 -37.3878 -37.3873  -7.4406   0.3080   1.4323   2.1926
     8.4318   9.9168  11.3259  12.2769

     occupation numbers 
     1.0000   1.0000   1.0000   1.0000   1.0000   1.0000   1.0000   1.0000
     0.0000   0.0000   0.0000   0.0000

          k = 0.4950-0.3536-0.0707 (  1554 PWs)   bands (ev):

   -70.4223 -37.3888 -37.3879 -37.3872  -7.4650   0.3738   1.3424   2.3042
     8.7712   9.8157  11.2480  12.1102

     occupation numbers 
     1.0000   1.0000   1.0000   1.0000   1.0000   1.0000   1.0000   1.0000
     0.0000   0.0000   0.0000   0.0000

          k = 0.4243-0.2828 0.0000 (  1549 PWs)   bands (ev):

   -70.4224 -37.3886 -37.3877 -37.3871  -7.5876   0.5148   1.5966   2.4872
     9.1033   9.7084  10.5157  12.1211

     occupation numbers 
     1.0000   1.0000   1.0000   1.0000   1.0000   1.0000   1.0000   1.0000
     0.0000   0.0000   0.0000   0.0000

          k = 0.7071-0.5657-0.1414 (  1558 PWs)   bands (ev):

   -70.4223 -37.3889 -37.3876 -37.3875  -7.4523   0.3601   1.8009   1.9776
     7.4437   9.1430  12.1318  13.8034

     occupation numbers 
     1.0000   1.0000   1.0000   1.0000   1.0000   1.0000   1.0000   1.0000
     0.0000   0.0000   0.0000   0.0000

          k = 0.6364-0.4950-0.0707 (  1559 PWs)   bands (ev):

   -70.4223 -37.3889 -37.3879 -37.3875  -7.3815   0.3993   1.3640   1.9391
     7.7241   9.6667  11.9702  13.0508

     occupation numbers 
     1.0000   1.0000   1.0000   1.0000   1.0000   1.0000   1.0000   1.0000
     0.0000   0.0000   0.0000   0.0000

          k = 0.5657-0.4243-0.0000 (  1560 PWs)   bands (ev):

   -70.4223 -37.3887 -37.3881 -37.3874  -7.3870   0.5796   0.9797   2.0781
     8.1841  10.2363  11.7159  12.1876

     occupation numbers 
     1.0000   1.0000   1.0000   1.0000   1.0000   1.0000   1.0000   1.0000
     0.0000   0.0000   0.0000   0.0000

          k = 0.0000 0.1414-0.7071 (  1564 PWs)   bands (ev):

   -70.4223 -37.3891 -37.3877 -37.3876  -7.3599   0.2455   1.7127   1.8239
     7.1571   9.0033  13.2954  13.5916

     occupation numbers 
     1.0000   1.0000   1.0000   1.0000   1.0000   1.0000   1.0000   1.0000
     0.0000   0.0000   0.0000   0.0000

          k = 0.7071-0.4243-0.1414 (  1562 PWs)   bands (ev):

   -70.4223 -37.3888 -37.3880 -37.3874  -7.4200   0.4845   1.3170   1.9697
     8.3909  10.2799  10.6245  12.7171

     occupation numbers 
     1.0000   1.0000   1.0000   1.0000   1.0000   1.0000   1.0000   1.0000
     0.0000   0.0000   0.0000   0.0000

          k = 0.6364-0.3536-0.0707 (  1566 PWs)   bands (ev):

   -70.4223 -37.3887 -37.3881 -37.3875  -7.3780   0.5743   1.1151   1.8475
     8.4559  10.3967  11.1061  11.9590

     occupation numbers 
     1.0000   1.0000   1.0000   1.0000   1.0000   1.0000   1.0000   1.0000
     0.0000   0.0000   0.0000   0.0000

          k = 0.0000 0.2828-0.7071 (  1564 PWs)   bands (ev):

   -70.4223 -37.3888 -37.3880 -37.3876  -7.3548   0.5555   1.2425   1.6556
     8.1363  10.2028  11.7639  11.7698

     occupation numbers 
     1.0000   1.0000   1.0000   1.0000   1.0000   1.0000   1.0000   1.0000
     0.0000   0.0000   0.0000   0.0000

     the Fermi energy is     4.7022 ev

!    total energy              =    -149.33486147 Ry
     Harris-Foulkes estimate   =    -149.33486146 Ry
     estimated scf accuracy    <          6.4E-10 Ry

     The total energy is the sum of the following terms:

     one-electron contribution =    -114.49784271 Ry
     hartree contribution      =      57.62322826 Ry
     xc contribution           =     -25.06014055 Ry
     ewald contribution        =     -67.40010647 Ry
     smearing contrib. (-TS)   =      -0.00000000 Ry

     convergence has been achieved in  11 iterations

     Forces acting on atoms (cartesian axes, Ry/au):

     atom    1 type  1   force =     0.00000000    0.00000000    0.00000000
     atom    2 type  2   force =     0.00000000    0.00000000    0.00000000
     The non-local contrib.  to forces
     atom    1 type  1   force =     0.00000000   -0.00000000    0.00000000
     atom    2 type  2   force =    -0.00000000    0.00000000    0.00000000
     The ionic contribution  to forces
     atom    1 type  1   force =     0.00000000    0.00000000    0.00000000
     atom    2 type  2   force =     0.00000000   -0.00000000   -0.00000000
     The local contribution  to forces
     atom    1 type  1   force =    -0.00000000    0.00000000    0.00000000
     atom    2 type  2   force =    -0.00000000    0.00000000   -0.00000000
     The core correction contribution to forces
     atom    1 type  1   force =     0.00000000    0.00000000    0.00000000
     atom    2 type  2   force =     0.00000000    0.00000000    0.00000000
     The Hubbard contrib.    to forces
     atom    1 type  1   force =     0.00000000    0.00000000    0.00000000
     atom    2 type  2   force =     0.00000000    0.00000000    0.00000000
     The SCF correction term to forces
     atom    1 type  1   force =    -0.00000000   -0.00000000   -0.00000000
     atom    2 type  2   force =    -0.00000000   -0.00000000   -0.00000000

     Total force =     0.000000     Total SCF correction =     0.000000


     Computing stress (Cartesian axis) and pressure

          total   stress  (Ry/bohr**3)                   (kbar)     P=       -0.07
  -0.00000045  -0.00000000  -0.00000000           -0.07       -0.00       -0.00
  -0.00000000  -0.00000045   0.00000000           -0.00       -0.07        0.00
  -0.00000000   0.00000000  -0.00000045           -0.00        0.00       -0.07

     kinetic stress (kbar)   7639.00     -0.00      0.00
                                0.00   7639.00     -0.00
                                0.00      0.00   7639.00

     local   stress (kbar)  -6890.96      0.00      0.00
                                0.00  -6890.96      0.00
                                0.00      0.00  -6890.96

     nonloc. stress (kbar)   4244.65      0.00     -0.00
                                0.00   4244.65      0.00
                                0.00     -0.00   4244.65

     hartree stress (kbar)   9280.21     -0.00     -0.00
                               -0.00   9280.21      0.00
                               -0.00      0.00   9280.21

     exc-cor stress (kbar)  -1529.05     -0.00      0.00
                               -0.00  -1529.05      0.00
                                0.00      0.00  -1529.05

     corecor stress (kbar)  -1889.14     -0.00      0.00
                               -0.00  -1889.14     -0.00
                                0.00     -0.00  -1889.14

     ewald   stress (kbar) -10854.78     -0.00     -0.00
                               -0.00 -10854.78     -0.00
                               -0.00     -0.00 -10854.78

     hubbard stress (kbar)      0.00      0.00      0.00
                                0.00      0.00      0.00
                                0.00      0.00      0.00

     london  stress (kbar)      0.00      0.00      0.00
                                0.00      0.00      0.00
                                0.00      0.00      0.00

     DFT-D3  stress (kbar)      0.00      0.00      0.00
                                0.00      0.00      0.00
                                0.00      0.00      0.00

     XDM     stress (kbar)      0.00      0.00      0.00
                                0.00      0.00      0.00
                                0.00      0.00      0.00

     dft-nl  stress (kbar)      0.00      0.00      0.00
                                0.00      0.00      0.00
                                0.00      0.00      0.00

     TS-vdW  stress (kbar)      0.00      0.00      0.00
                                0.00      0.00      0.00
                                0.00      0.00      0.00



     Writing output data file znse.in_vnscf_vol_2/qe.save/
 
     init_run     :      0.20s CPU      0.22s WALL (       1 calls)
     electrons    :      5.19s CPU      5.63s WALL (       1 calls)
     forces       :      0.04s CPU      0.05s WALL (       1 calls)
     stress       :      0.11s CPU      0.11s WALL (       1 calls)

     Called by init_run:
     wfcinit      :      0.12s CPU      0.13s WALL (       1 calls)
     wfcinit:atom :      0.00s CPU      0.00s WALL (      47 calls)
     wfcinit:wfcr :      0.11s CPU      0.12s WALL (      47 calls)
     potinit      :      0.01s CPU      0.01s WALL (       1 calls)
     hinit0       :      0.05s CPU      0.06s WALL (       1 calls)

     Called by electrons:
     c_bands      :      4.44s CPU      4.65s WALL (      11 calls)
     sum_band     :      0.57s CPU      0.60s WALL (      11 calls)
     v_of_rho     :      0.04s CPU      0.05s WALL (      12 calls)
     v_h          :      0.00s CPU      0.00s WALL (      12 calls)
     v_xc         :      0.04s CPU      0.05s WALL (      14 calls)
     newd         :      0.09s CPU      0.09s WALL (      12 calls)
     mix_rho      :      0.06s CPU      0.06s WALL (      11 calls)

     Called by c_bands:
     init_us_2    :      0.07s CPU      0.07s WALL (    1175 calls)
     cegterg      :      4.18s CPU      4.38s WALL (     517 calls)

     Called by sum_band:
     sum_band:bec :      0.00s CPU      0.01s WALL (     517 calls)
     addusdens    :      0.11s CPU      0.11s WALL (      11 calls)

     Called by *egterg:
     h_psi        :      1.86s CPU      1.98s WALL (    1811 calls)
     s_psi        :      0.04s CPU      0.04s WALL (    1811 calls)
     g_psi        :      0.01s CPU      0.01s WALL (    1247 calls)
     cdiaghg      :      1.84s CPU      1.89s WALL (    1764 calls)
     cegterg:over :      0.30s CPU      0.32s WALL (    1247 calls)
     cegterg:upda :      0.09s CPU      0.10s WALL (    1247 calls)
     cegterg:last :      0.04s CPU      0.04s WALL (     517 calls)
     cdiaghg:chol :      0.12s CPU      0.13s WALL (    1764 calls)
     cdiaghg:inve :      0.07s CPU      0.07s WALL (    1764 calls)
     cdiaghg:para :      0.16s CPU      0.16s WALL (    3528 calls)

     Called by h_psi:
     h_psi:calbec :      0.11s CPU      0.11s WALL (    1811 calls)
     vloc_psi     :      1.70s CPU      1.81s WALL (    1811 calls)
     add_vuspsi   :      0.04s CPU      0.05s WALL (    1811 calls)

     General routines
     calbec       :      0.15s CPU      0.16s WALL (    2563 calls)
     fft          :      0.04s CPU      0.04s WALL (     179 calls)
     ffts         :      0.03s CPU      0.04s WALL (     347 calls)
     fftw         :      1.86s CPU      1.99s WALL (   37164 calls)
     interpolate  :      0.00s CPU      0.00s WALL (      12 calls)
 
     Parallel routines
     fft_scatt_xy :      0.22s CPU      0.24s WALL (   37690 calls)
     fft_scatt_yz :      0.74s CPU      0.79s WALL (   37690 calls)
 
     PWSCF        :      5.69s CPU      8.74s WALL

 
   This run was terminated on:  16:25:50  25Jun2021            

=------------------------------------------------------------------------------=
   JOB DONE.
=------------------------------------------------------------------------------=
