
     Program PWSCF v.6.5 starts on 25Jun2021 at 16:23:58 

     This program is part of the open-source Quantum ESPRESSO suite
     for quantum simulation of materials; please cite
         "P. Giannozzi et al., J. Phys.:Condens. Matter 21 395502 (2009);
         "P. Giannozzi et al., J. Phys.:Condens. Matter 29 465901 (2017);
          URL http://www.quantum-espresso.org", 
     in publications or presentations arising from this work. More details at
     http://www.quantum-espresso.org/quote

     Parallel version (MPI), running on    12 processors

     MPI processes distributed on     1 nodes
     R & G space division:  proc/nbgrp/npool/nimage =      12
     Reading input from znse.in_vnscf_shear_2/qe.in
Warning: card &IONS ignored
Warning: card   ION_DYNAMICS='BFGS', ignored
Warning: card / ignored
Warning: card &CELL ignored
Warning: card  CELL_DYNAMICS = 'BFGS' ignored
Warning: card  CELL_DOFREE = 'ALL' ignored
Warning: card  CELL_FACTOR = 1.0 ignored
Warning: card / ignored
     Message from routine read_cards :
     DEPRECATED: no units specified in CELL_PARAMETERS card

     Current dimensions of program PWSCF are:
     Max number of different atomic species (ntypx) = 10
     Max number of k-points (npk) =  40000
     Max angular momentum in pseudopotentials (lmaxx) =  3
     Message from routine volume:
     axis vectors are left-handed
               file mg.pbesol.UPF: wavefunction(s)  3P renormalized

     Subspace diagonalization in iterative solution of the eigenvalue problem:
     one sub-group per band group will be used
     scalapack distributed-memory algorithm (size of sub-group:  3*  3 procs)

     Message from routine setup:
     using ibrav=0 with symmetry is DISCOURAGED, use correct ibrav instead
 
     Parallelization info
     --------------------
     sticks:   dense  smooth     PW     G-vecs:    dense   smooth      PW
     Min          82      60     19                 1691     1030     185
     Max          85      61     20                 1692     1031     186
     Sum         991     723    231                20295    12361    2229
 


     bravais-lattice index     =            0
     lattice parameter (alat)  =       7.7023  a.u.
     unit-cell volume          =     304.3492 (a.u.)^3
     number of atoms/cell      =            2
     number of atomic types    =            2
     number of electrons       =        16.00
     number of Kohn-Sham states=           12
     kinetic-energy cutoff     =      45.0000  Ry
     charge density cutoff     =     250.0000  Ry
     convergence threshold     =      1.0E-09
     mixing beta               =       0.3000
     number of iterations used =            8  local-TF  mixing
     Exchange-correlation= SLA  PW   PSX  PSC
                           (   1   4  10   8   0   0   0)
     A smooth kinetic-energy cutoff is imposed at      44.5000 Ry
     height of the smooth step-function =             800.0000 Ry
     width of the smooth step-function  =               1.0000 Ry


     celldm(1)=   7.702301  celldm(2)=   0.000000  celldm(3)=   0.000000
     celldm(4)=   0.000000  celldm(5)=   0.000000  celldm(6)=   0.000000

     crystal axes: (cart. coord. in units of alat)
               a(1) = (   0.707107   0.707107   0.000000 )  
               a(2) = (   0.693242   0.013865   0.693242 )  
               a(3) = (   0.013865   0.693242   0.693242 )  

     reciprocal axes: (cart. coord. in units 2 pi/alat)
               b(1) = (  0.707107  0.707107 -0.721249 )  
               b(2) = (  0.735968 -0.735968  0.721249 )  
               b(3) = ( -0.735968  0.735968  0.721249 )  


     PseudoPot. # 1 for Mg read from file:
     /home/kfg/codes/ThreeBodyTB.jl/src/../pseudo/gbrv_pbesol/mg.pbesol.UPF
     MD5 check sum: cbba17e5274afd115179030b10be074e
     Pseudo is Ultrasoft, Zval = 10.0
     Generated by new atomic code, or converted to UPF format
     Using radial grid of  821 points,  7 beta functions with: 
                l(1) =   0
                l(2) =   0
                l(3) =   0
                l(4) =   1
                l(5) =   1
                l(6) =   2
                l(7) =   2
     Q(r) pseudized with  8 coefficients,  rinner =    1.200   1.200   1.200
                                                       1.200   1.200

     PseudoPot. # 2 for S  read from file:
     /home/kfg/codes/ThreeBodyTB.jl/src/../pseudo/gbrv_pbesol/s.pbesol.UPF
     MD5 check sum: 0ccfa86ec6eb59065d10aaae963ef2a7
     Pseudo is Ultrasoft + core correction, Zval =  6.0
     Generated by new atomic code, or converted to UPF format
     Using radial grid of  907 points,  6 beta functions with: 
                l(1) =   0
                l(2) =   0
                l(3) =   1
                l(4) =   1
                l(5) =   2
                l(6) =   2
     Q(r) pseudized with  8 coefficients,  rinner =    1.300   1.300   1.300
                                                       1.300   1.300

     atomic species   valence    mass     pseudopotential
        Mg            10.00    24.31000     Mg( 1.00)
        S              6.00    32.06000     S ( 1.00)

      4 Sym. Ops. (no inversion) found


                                    s                        frac. trans.

      isym =  1     identity                                     

 cryst.   s( 1) = (     1          0          0      )
                  (     0          1          0      )
                  (     0          0          1      )

 cart.    s( 1) = (  1.0000000  0.0000000  0.0000000 )
                  (  0.0000000  1.0000000  0.0000000 )
                  (  0.0000000  0.0000000  1.0000000 )


      isym =  2     180 deg rotation - cart. axis [0,0,1]        

 cryst.   s( 2) = (    -1          0          0      )
                  (    -1          0          1      )
                  (    -1          1          0      )

 cart.    s( 2) = ( -1.0000000 -0.0000000  0.0000000 )
                  (  0.0000000 -1.0000000  0.0000000 )
                  (  0.0000000  0.0000000  1.0000000 )


      isym =  3     inv. 180 deg rotation - cart. axis [1,1,0]   

 cryst.   s( 3) = (    -1          0          0      )
                  (    -1          1          0      )
                  (    -1          0          1      )

 cart.    s( 3) = ( -0.0000000 -1.0000000  0.0000000 )
                  ( -1.0000000  0.0000000  0.0000000 )
                  (  0.0000000  0.0000000  1.0000000 )


      isym =  4     inv. 180 deg rotation - cart. axis [1,-1,0]  

 cryst.   s( 4) = (     1          0          0      )
                  (     0          0          1      )
                  (     0          1          0      )

 cart.    s( 4) = (  0.0000000  1.0000000  0.0000000 )
                  (  1.0000000  0.0000000  0.0000000 )
                  (  0.0000000  0.0000000  1.0000000 )


   Cartesian axes

     site n.     atom                  positions (alat units)
         1           Mg  tau(   1) = (   0.0000000   0.0000000   0.0000000  )
         2           S   tau(   2) = (   0.3535534   0.3535534   0.3466210  )

   Crystallographic axes

     site n.     atom                  positions (cryst. coord.)
         1           Mg  tau(   1) = (  0.0000000  0.0000000  0.0000000  )
         2           S   tau(   2) = (  0.2500000  0.2500000  0.2500000  )

     number of k points=   171  Gaussian smearing, width (Ry)=  0.0100
                       cart. coord. in units 2pi/alat
        k(    1) = (   0.0000000   0.0000000   0.0000000), wk =   0.0020000
        k(    2) = (  -0.0735968   0.0735968   0.0721249), wk =   0.0080000
        k(    3) = (  -0.1471937   0.1471937   0.1442498), wk =   0.0080000
        k(    4) = (  -0.2207905   0.2207905   0.2163747), wk =   0.0080000
        k(    5) = (  -0.2943873   0.2943873   0.2884996), wk =   0.0080000
        k(    6) = (   0.3679841  -0.3679841  -0.3606245), wk =   0.0040000
        k(    7) = (   0.0000000   0.0000000   0.1442498), wk =   0.0040000
        k(    8) = (  -0.0735968   0.0735968   0.2163747), wk =   0.0080000
        k(    9) = (  -0.1471937   0.1471937   0.2884996), wk =   0.0080000
        k(   10) = (  -0.2207905   0.2207905   0.3606245), wk =   0.0080000
        k(   11) = (   0.4415810  -0.4415810  -0.2884996), wk =   0.0080000
        k(   12) = (   0.3679841  -0.3679841  -0.2163747), wk =   0.0080000
        k(   13) = (   0.2943873  -0.2943873  -0.1442498), wk =   0.0080000
        k(   14) = (   0.2207905  -0.2207905  -0.0721249), wk =   0.0080000
        k(   15) = (   0.1471937  -0.1471937   0.0000000), wk =   0.0040000
        k(   16) = (   0.0000000   0.0000000   0.2884996), wk =   0.0040000
        k(   17) = (  -0.0735968   0.0735968   0.3606245), wk =   0.0080000
        k(   18) = (  -0.1471937   0.1471937   0.4327494), wk =   0.0080000
        k(   19) = (   0.5151778  -0.5151778  -0.2163747), wk =   0.0080000
        k(   20) = (   0.4415810  -0.4415810  -0.1442498), wk =   0.0080000
        k(   21) = (   0.3679841  -0.3679841  -0.0721249), wk =   0.0080000
        k(   22) = (   0.2943873  -0.2943873   0.0000000), wk =   0.0040000
        k(   23) = (   0.0000000   0.0000000   0.4327494), wk =   0.0040000
        k(   24) = (  -0.0735968   0.0735968   0.5048742), wk =   0.0080000
        k(   25) = (   0.5887746  -0.5887746  -0.1442498), wk =   0.0080000
        k(   26) = (   0.5151778  -0.5151778  -0.0721249), wk =   0.0080000
        k(   27) = (   0.4415810  -0.4415810  -0.0000000), wk =   0.0040000
        k(   28) = (   0.0000000   0.0000000   0.5769991), wk =   0.0040000
        k(   29) = (   0.6623715  -0.6623715  -0.0721249), wk =   0.0080000
        k(   30) = (   0.5887746  -0.5887746   0.0000000), wk =   0.0040000
        k(   31) = (   0.0000000   0.0000000  -0.7212489), wk =   0.0020000
        k(   32) = (   0.0707107   0.0707107  -0.0721249), wk =   0.0080000
        k(   33) = (  -0.0028862   0.1443075  -0.0000000), wk =   0.0080000
        k(   34) = (  -0.0764830   0.2179043   0.0721249), wk =   0.0160000
        k(   35) = (  -0.1500798   0.2915012   0.1442498), wk =   0.0160000
        k(   36) = (  -0.2236766   0.3650980   0.2163747), wk =   0.0160000
        k(   37) = (   0.4386948  -0.2972735  -0.4327494), wk =   0.0160000
        k(   38) = (   0.3650980  -0.2236766  -0.3606245), wk =   0.0160000
        k(   39) = (   0.2915012  -0.1500798  -0.2884996), wk =   0.0160000
        k(   40) = (   0.2179043  -0.0764830  -0.2163747), wk =   0.0160000
        k(   41) = (   0.1443075  -0.0028862  -0.1442498), wk =   0.0160000
        k(   42) = (   0.0707107   0.0707107   0.2163747), wk =   0.0080000
        k(   43) = (  -0.0028862   0.1443075   0.2884996), wk =   0.0160000
        k(   44) = (  -0.0764830   0.2179043   0.3606245), wk =   0.0160000
        k(   45) = (   0.5858885  -0.4444671  -0.2884996), wk =   0.0160000
        k(   46) = (   0.5122916  -0.3708703  -0.2163747), wk =   0.0160000
        k(   47) = (   0.4386948  -0.2972735  -0.1442498), wk =   0.0160000
        k(   48) = (   0.3650980  -0.2236766  -0.0721249), wk =   0.0160000
        k(   49) = (   0.2915012  -0.1500798  -0.0000000), wk =   0.0080000
        k(   50) = (   0.0707107   0.0707107   0.3606245), wk =   0.0080000
        k(   51) = (  -0.0028862   0.1443075   0.4327494), wk =   0.0160000
        k(   52) = (   0.6594853  -0.5180639  -0.2163747), wk =   0.0160000
        k(   53) = (   0.5858885  -0.4444671  -0.1442498), wk =   0.0160000
        k(   54) = (   0.5122916  -0.3708703  -0.0721249), wk =   0.0160000
        k(   55) = (   0.4386948  -0.2972735  -0.0000000), wk =   0.0080000
        k(   56) = (   0.0707107   0.0707107   0.5048742), wk =   0.0080000
        k(   57) = (   0.7330821  -0.5916608  -0.1442498), wk =   0.0160000
        k(   58) = (   0.6594853  -0.5180639  -0.0721249), wk =   0.0160000
        k(   59) = (   0.5858885  -0.4444671  -0.0000000), wk =   0.0080000
        k(   60) = (   0.0707107   0.0707107  -0.7933738), wk =   0.0080000
        k(   61) = (  -0.0028862   0.1443075  -0.7212489), wk =   0.0080000
        k(   62) = (   0.1414214   0.1414214  -0.1442498), wk =   0.0080000
        k(   63) = (   0.0678245   0.2150182  -0.0721249), wk =   0.0160000
        k(   64) = (  -0.0057723   0.2886150  -0.0000000), wk =   0.0080000
        k(   65) = (  -0.0793691   0.3622118   0.0721249), wk =   0.0160000
        k(   66) = (  -0.1529660   0.4358087   0.1442498), wk =   0.0160000
        k(   67) = (   0.5094055  -0.2265628  -0.5048742), wk =   0.0160000
        k(   68) = (   0.4358087  -0.1529660  -0.4327494), wk =   0.0160000
        k(   69) = (   0.3622118  -0.0793691  -0.3606245), wk =   0.0160000
        k(   70) = (   0.2886150  -0.0057723  -0.2884996), wk =   0.0160000
        k(   71) = (   0.2150182   0.0678245  -0.2163747), wk =   0.0160000
        k(   72) = (   0.1414214   0.1414214  -0.0000000), wk =   0.0040000
        k(   73) = (  -0.0057723   0.2886150   0.1442498), wk =   0.0160000
        k(   74) = (  -0.0793691   0.3622118   0.2163747), wk =   0.0160000
        k(   75) = (   0.5830023  -0.3001596  -0.4327494), wk =   0.0160000
        k(   76) = (   0.5094055  -0.2265628  -0.3606245), wk =   0.0080000
        k(   77) = (   0.1414214   0.1414214   0.2884996), wk =   0.0080000
        k(   78) = (   0.0678245   0.2150182   0.3606245), wk =   0.0160000
        k(   79) = (   0.7301960  -0.4473533  -0.2884996), wk =   0.0160000
        k(   80) = (   0.6565992  -0.3737564  -0.2163747), wk =   0.0160000
        k(   81) = (   0.5830023  -0.3001596  -0.1442498), wk =   0.0160000
        k(   82) = (   0.5094055  -0.2265628  -0.0721249), wk =   0.0160000
        k(   83) = (   0.4358087  -0.1529660  -0.0000000), wk =   0.0080000
        k(   84) = (   0.1414214   0.1414214   0.4327494), wk =   0.0080000
        k(   85) = (   0.8037928  -0.5209501  -0.2163747), wk =   0.0160000
        k(   86) = (   0.7301960  -0.4473533  -0.1442498), wk =   0.0160000
        k(   87) = (   0.6565992  -0.3737564  -0.0721249), wk =   0.0160000
        k(   88) = (   0.5830023  -0.3001596  -0.0000000), wk =   0.0080000
        k(   89) = (   0.1414214   0.1414214  -0.8654987), wk =   0.0080000
        k(   90) = (   0.0678245   0.2150182  -0.7933738), wk =   0.0160000
        k(   91) = (  -0.0057723   0.2886150  -0.7212489), wk =   0.0080000
        k(   92) = (   0.1414214   0.1414214  -0.7212489), wk =   0.0040000
        k(   93) = (   0.2121320   0.2121320  -0.2163747), wk =   0.0080000
        k(   94) = (   0.1385352   0.2857289  -0.1442498), wk =   0.0160000
        k(   95) = (   0.0649384   0.3593257  -0.0721249), wk =   0.0160000
        k(   96) = (  -0.0086585   0.4329225  -0.0000000), wk =   0.0080000
        k(   97) = (  -0.0822553   0.5065193   0.0721249), wk =   0.0160000
        k(   98) = (   0.5801162  -0.1558521  -0.5769991), wk =   0.0160000
        k(   99) = (   0.5065193  -0.0822553  -0.5048742), wk =   0.0160000
        k(  100) = (   0.4329225  -0.0086585  -0.4327494), wk =   0.0160000
        k(  101) = (   0.3593257   0.0649384  -0.3606245), wk =   0.0160000
        k(  102) = (   0.2857289   0.1385352  -0.2884996), wk =   0.0160000
        k(  103) = (   0.2121320   0.2121320  -0.0721249), wk =   0.0080000
        k(  104) = (   0.1385352   0.2857289  -0.0000000), wk =   0.0080000
        k(  105) = (  -0.0086585   0.4329225   0.1442498), wk =   0.0160000
        k(  106) = (   0.6537130  -0.2294489  -0.5048742), wk =   0.0160000
        k(  107) = (   0.5801162  -0.1558521  -0.4327494), wk =   0.0160000
        k(  108) = (   0.5065193  -0.0822553  -0.3606245), wk =   0.0160000
        k(  109) = (   0.4329225  -0.0086585  -0.2884996), wk =   0.0160000
        k(  110) = (   0.3593257   0.0649384  -0.2163747), wk =   0.0160000
        k(  111) = (   0.2121320   0.2121320   0.3606245), wk =   0.0080000
        k(  112) = (   0.8745035  -0.4502394  -0.2884996), wk =   0.0160000
        k(  113) = (   0.8009067  -0.3766426  -0.2163747), wk =   0.0160000
        k(  114) = (   0.7273098  -0.3030458  -0.1442498), wk =   0.0160000
        k(  115) = (   0.6537130  -0.2294489  -0.0721249), wk =   0.0160000
        k(  116) = (   0.5801162  -0.1558521  -0.0000000), wk =   0.0080000
        k(  117) = (   0.2121320   0.2121320  -0.9376236), wk =   0.0080000
        k(  118) = (   0.1385352   0.2857289  -0.8654987), wk =   0.0160000
        k(  119) = (   0.0649384   0.3593257  -0.7933738), wk =   0.0160000
        k(  120) = (  -0.0086585   0.4329225  -0.7212489), wk =   0.0080000
        k(  121) = (   0.2121320   0.2121320  -0.7933738), wk =   0.0080000
        k(  122) = (   0.1385352   0.2857289  -0.7212489), wk =   0.0080000
        k(  123) = (   0.2828427   0.2828427  -0.2884996), wk =   0.0080000
        k(  124) = (   0.2092459   0.3564395  -0.2163747), wk =   0.0160000
        k(  125) = (   0.1356491   0.4300364  -0.1442498), wk =   0.0160000
        k(  126) = (   0.0620522   0.5036332  -0.0721249), wk =   0.0160000
        k(  127) = (  -0.0115446   0.5772300  -0.0000000), wk =   0.0080000
        k(  128) = (   0.6508269  -0.0851414  -0.6491240), wk =   0.0160000
        k(  129) = (   0.5772300  -0.0115446  -0.5769991), wk =   0.0160000
        k(  130) = (   0.5036332   0.0620522  -0.5048742), wk =   0.0160000
        k(  131) = (   0.4300364   0.1356491  -0.4327494), wk =   0.0160000
        k(  132) = (   0.3564395   0.2092459  -0.3606245), wk =   0.0160000
        k(  133) = (   0.2828427   0.2828427  -0.1442498), wk =   0.0080000
        k(  134) = (   0.2092459   0.3564395  -0.0721249), wk =   0.0160000
        k(  135) = (   0.1356491   0.4300364  -0.0000000), wk =   0.0080000
        k(  136) = (   0.7244237  -0.1587383  -0.5769991), wk =   0.0160000
        k(  137) = (   0.6508269  -0.0851414  -0.5048742), wk =   0.0160000
        k(  138) = (   0.5772300  -0.0115446  -0.4327494), wk =   0.0160000
        k(  139) = (   0.5036332   0.0620522  -0.3606245), wk =   0.0160000
        k(  140) = (   0.4300364   0.1356491  -0.2884996), wk =   0.0160000
        k(  141) = (   0.2828427   0.2828427  -0.0000000), wk =   0.0040000
        k(  142) = (   0.7980205  -0.2323351  -0.5048742), wk =   0.0160000
        k(  143) = (   0.7244237  -0.1587383  -0.4327494), wk =   0.0160000
        k(  144) = (   0.6508269  -0.0851414  -0.3606245), wk =   0.0080000
        k(  145) = (   0.2828427   0.2828427  -1.0097485), wk =   0.0080000
        k(  146) = (   0.2092459   0.3564395  -0.9376236), wk =   0.0160000
        k(  147) = (   0.1356491   0.4300364  -0.8654987), wk =   0.0160000
        k(  148) = (   0.0620522   0.5036332  -0.7933738), wk =   0.0160000
        k(  149) = (  -0.0115446   0.5772300  -0.7212489), wk =   0.0080000
        k(  150) = (   0.2828427   0.2828427  -0.8654987), wk =   0.0080000
        k(  151) = (   0.2092459   0.3564395  -0.7933738), wk =   0.0160000
        k(  152) = (   0.1356491   0.4300364  -0.7212489), wk =   0.0080000
        k(  153) = (   0.2828427   0.2828427  -0.7212489), wk =   0.0040000
        k(  154) = (  -0.3535534  -0.3535534   0.3606245), wk =   0.0040000
        k(  155) = (  -0.4271502  -0.2799566   0.4327494), wk =   0.0160000
        k(  156) = (  -0.5007470  -0.2063597   0.5048742), wk =   0.0160000
        k(  157) = (  -0.5743439  -0.1327629   0.5769991), wk =   0.0160000
        k(  158) = (  -0.6479407  -0.0591661   0.6491240), wk =   0.0160000
        k(  159) = (   0.0144308  -0.7215375   0.0000000), wk =   0.0040000
        k(  160) = (  -0.3535534  -0.3535534   0.5048742), wk =   0.0080000
        k(  161) = (  -0.4271502  -0.2799566   0.5769991), wk =   0.0160000
        k(  162) = (  -0.5007470  -0.2063597   0.6491240), wk =   0.0160000
        k(  163) = (  -0.5743439  -0.1327629   0.7212489), wk =   0.0080000
        k(  164) = (   0.0144308  -0.7215375   0.1442498), wk =   0.0080000
        k(  165) = (  -0.0591661  -0.6479407   0.2163747), wk =   0.0160000
        k(  166) = (  -0.1327629  -0.5743439   0.2884996), wk =   0.0160000
        k(  167) = (  -0.2063597  -0.5007470   0.3606245), wk =   0.0080000
        k(  168) = (  -0.3535534  -0.3535534   0.6491240), wk =   0.0080000
        k(  169) = (  -0.4271502  -0.2799566   0.7212489), wk =   0.0080000
        k(  170) = (   0.0144308  -0.7215375   0.2884996), wk =   0.0080000
        k(  171) = (  -0.0591661  -0.6479407   0.3606245), wk =   0.0080000

                       cryst. coord.
        k(    1) = (   0.0000000   0.0000000   0.0000000), wk =   0.0020000
        k(    2) = (   0.0000000   0.0000000   0.1000000), wk =   0.0080000
        k(    3) = (   0.0000000   0.0000000   0.2000000), wk =   0.0080000
        k(    4) = (   0.0000000   0.0000000   0.3000000), wk =   0.0080000
        k(    5) = (   0.0000000   0.0000000   0.4000000), wk =   0.0080000
        k(    6) = (   0.0000000  -0.0000000  -0.5000000), wk =   0.0040000
        k(    7) = (   0.0000000   0.1000000   0.1000000), wk =   0.0040000
        k(    8) = (   0.0000000   0.1000000   0.2000000), wk =   0.0080000
        k(    9) = (   0.0000000   0.1000000   0.3000000), wk =   0.0080000
        k(   10) = (   0.0000000   0.1000000   0.4000000), wk =   0.0080000
        k(   11) = (   0.0000000   0.1000000  -0.5000000), wk =   0.0080000
        k(   12) = (   0.0000000   0.1000000  -0.4000000), wk =   0.0080000
        k(   13) = (   0.0000000   0.1000000  -0.3000000), wk =   0.0080000
        k(   14) = (   0.0000000   0.1000000  -0.2000000), wk =   0.0080000
        k(   15) = (   0.0000000   0.1000000  -0.1000000), wk =   0.0040000
        k(   16) = (   0.0000000   0.2000000   0.2000000), wk =   0.0040000
        k(   17) = (   0.0000000   0.2000000   0.3000000), wk =   0.0080000
        k(   18) = (   0.0000000   0.2000000   0.4000000), wk =   0.0080000
        k(   19) = (   0.0000000   0.2000000  -0.5000000), wk =   0.0080000
        k(   20) = (   0.0000000   0.2000000  -0.4000000), wk =   0.0080000
        k(   21) = (   0.0000000   0.2000000  -0.3000000), wk =   0.0080000
        k(   22) = (   0.0000000   0.2000000  -0.2000000), wk =   0.0040000
        k(   23) = (   0.0000000   0.3000000   0.3000000), wk =   0.0040000
        k(   24) = (   0.0000000   0.3000000   0.4000000), wk =   0.0080000
        k(   25) = (   0.0000000   0.3000000  -0.5000000), wk =   0.0080000
        k(   26) = (   0.0000000   0.3000000  -0.4000000), wk =   0.0080000
        k(   27) = (   0.0000000   0.3000000  -0.3000000), wk =   0.0040000
        k(   28) = (   0.0000000   0.4000000   0.4000000), wk =   0.0040000
        k(   29) = (   0.0000000   0.4000000  -0.5000000), wk =   0.0080000
        k(   30) = (   0.0000000   0.4000000  -0.4000000), wk =   0.0040000
        k(   31) = (   0.0000000  -0.5000000  -0.5000000), wk =   0.0020000
        k(   32) = (   0.1000000   0.0000000   0.0000000), wk =   0.0080000
        k(   33) = (   0.1000000   0.0000000   0.1000000), wk =   0.0080000
        k(   34) = (   0.1000000   0.0000000   0.2000000), wk =   0.0160000
        k(   35) = (   0.1000000   0.0000000   0.3000000), wk =   0.0160000
        k(   36) = (   0.1000000   0.0000000   0.4000000), wk =   0.0160000
        k(   37) = (   0.1000000   0.0000000  -0.5000000), wk =   0.0160000
        k(   38) = (   0.1000000   0.0000000  -0.4000000), wk =   0.0160000
        k(   39) = (   0.1000000   0.0000000  -0.3000000), wk =   0.0160000
        k(   40) = (   0.1000000   0.0000000  -0.2000000), wk =   0.0160000
        k(   41) = (   0.1000000   0.0000000  -0.1000000), wk =   0.0160000
        k(   42) = (   0.1000000   0.2000000   0.2000000), wk =   0.0080000
        k(   43) = (   0.1000000   0.2000000   0.3000000), wk =   0.0160000
        k(   44) = (   0.1000000   0.2000000   0.4000000), wk =   0.0160000
        k(   45) = (   0.1000000   0.2000000  -0.5000000), wk =   0.0160000
        k(   46) = (   0.1000000   0.2000000  -0.4000000), wk =   0.0160000
        k(   47) = (   0.1000000   0.2000000  -0.3000000), wk =   0.0160000
        k(   48) = (   0.1000000   0.2000000  -0.2000000), wk =   0.0160000
        k(   49) = (   0.1000000   0.2000000  -0.1000000), wk =   0.0080000
        k(   50) = (   0.1000000   0.3000000   0.3000000), wk =   0.0080000
        k(   51) = (   0.1000000   0.3000000   0.4000000), wk =   0.0160000
        k(   52) = (   0.1000000   0.3000000  -0.5000000), wk =   0.0160000
        k(   53) = (   0.1000000   0.3000000  -0.4000000), wk =   0.0160000
        k(   54) = (   0.1000000   0.3000000  -0.3000000), wk =   0.0160000
        k(   55) = (   0.1000000   0.3000000  -0.2000000), wk =   0.0080000
        k(   56) = (   0.1000000   0.4000000   0.4000000), wk =   0.0080000
        k(   57) = (   0.1000000   0.4000000  -0.5000000), wk =   0.0160000
        k(   58) = (   0.1000000   0.4000000  -0.4000000), wk =   0.0160000
        k(   59) = (   0.1000000   0.4000000  -0.3000000), wk =   0.0080000
        k(   60) = (   0.1000000  -0.5000000  -0.5000000), wk =   0.0080000
        k(   61) = (   0.1000000  -0.5000000  -0.4000000), wk =   0.0080000
        k(   62) = (   0.2000000   0.0000000   0.0000000), wk =   0.0080000
        k(   63) = (   0.2000000   0.0000000   0.1000000), wk =   0.0160000
        k(   64) = (   0.2000000   0.0000000   0.2000000), wk =   0.0080000
        k(   65) = (   0.2000000   0.0000000   0.3000000), wk =   0.0160000
        k(   66) = (   0.2000000   0.0000000   0.4000000), wk =   0.0160000
        k(   67) = (   0.2000000   0.0000000  -0.5000000), wk =   0.0160000
        k(   68) = (   0.2000000   0.0000000  -0.4000000), wk =   0.0160000
        k(   69) = (   0.2000000   0.0000000  -0.3000000), wk =   0.0160000
        k(   70) = (   0.2000000   0.0000000  -0.2000000), wk =   0.0160000
        k(   71) = (   0.2000000   0.0000000  -0.1000000), wk =   0.0160000
        k(   72) = (   0.2000000   0.1000000   0.1000000), wk =   0.0040000
        k(   73) = (   0.2000000   0.1000000   0.3000000), wk =   0.0160000
        k(   74) = (   0.2000000   0.1000000   0.4000000), wk =   0.0160000
        k(   75) = (   0.2000000   0.1000000  -0.5000000), wk =   0.0160000
        k(   76) = (   0.2000000   0.1000000  -0.4000000), wk =   0.0080000
        k(   77) = (   0.2000000   0.3000000   0.3000000), wk =   0.0080000
        k(   78) = (   0.2000000   0.3000000   0.4000000), wk =   0.0160000
        k(   79) = (   0.2000000   0.3000000  -0.5000000), wk =   0.0160000
        k(   80) = (   0.2000000   0.3000000  -0.4000000), wk =   0.0160000
        k(   81) = (   0.2000000   0.3000000  -0.3000000), wk =   0.0160000
        k(   82) = (   0.2000000   0.3000000  -0.2000000), wk =   0.0160000
        k(   83) = (   0.2000000   0.3000000  -0.1000000), wk =   0.0080000
        k(   84) = (   0.2000000   0.4000000   0.4000000), wk =   0.0080000
        k(   85) = (   0.2000000   0.4000000  -0.5000000), wk =   0.0160000
        k(   86) = (   0.2000000   0.4000000  -0.4000000), wk =   0.0160000
        k(   87) = (   0.2000000   0.4000000  -0.3000000), wk =   0.0160000
        k(   88) = (   0.2000000   0.4000000  -0.2000000), wk =   0.0080000
        k(   89) = (   0.2000000  -0.5000000  -0.5000000), wk =   0.0080000
        k(   90) = (   0.2000000  -0.5000000  -0.4000000), wk =   0.0160000
        k(   91) = (   0.2000000  -0.5000000  -0.3000000), wk =   0.0080000
        k(   92) = (   0.2000000  -0.4000000  -0.4000000), wk =   0.0040000
        k(   93) = (   0.3000000   0.0000000   0.0000000), wk =   0.0080000
        k(   94) = (   0.3000000   0.0000000   0.1000000), wk =   0.0160000
        k(   95) = (   0.3000000   0.0000000   0.2000000), wk =   0.0160000
        k(   96) = (   0.3000000   0.0000000   0.3000000), wk =   0.0080000
        k(   97) = (   0.3000000   0.0000000   0.4000000), wk =   0.0160000
        k(   98) = (   0.3000000  -0.0000000  -0.5000000), wk =   0.0160000
        k(   99) = (   0.3000000   0.0000000  -0.4000000), wk =   0.0160000
        k(  100) = (   0.3000000   0.0000000  -0.3000000), wk =   0.0160000
        k(  101) = (   0.3000000   0.0000000  -0.2000000), wk =   0.0160000
        k(  102) = (   0.3000000   0.0000000  -0.1000000), wk =   0.0160000
        k(  103) = (   0.3000000   0.1000000   0.1000000), wk =   0.0080000
        k(  104) = (   0.3000000   0.1000000   0.2000000), wk =   0.0080000
        k(  105) = (   0.3000000   0.1000000   0.4000000), wk =   0.0160000
        k(  106) = (   0.3000000   0.1000000  -0.5000000), wk =   0.0160000
        k(  107) = (   0.3000000   0.1000000  -0.4000000), wk =   0.0160000
        k(  108) = (   0.3000000   0.1000000  -0.3000000), wk =   0.0160000
        k(  109) = (   0.3000000   0.1000000  -0.2000000), wk =   0.0160000
        k(  110) = (   0.3000000   0.1000000  -0.1000000), wk =   0.0160000
        k(  111) = (   0.3000000   0.4000000   0.4000000), wk =   0.0080000
        k(  112) = (   0.3000000   0.4000000  -0.5000000), wk =   0.0160000
        k(  113) = (   0.3000000   0.4000000  -0.4000000), wk =   0.0160000
        k(  114) = (   0.3000000   0.4000000  -0.3000000), wk =   0.0160000
        k(  115) = (   0.3000000   0.4000000  -0.2000000), wk =   0.0160000
        k(  116) = (   0.3000000   0.4000000  -0.1000000), wk =   0.0080000
        k(  117) = (   0.3000000  -0.5000000  -0.5000000), wk =   0.0080000
        k(  118) = (   0.3000000  -0.5000000  -0.4000000), wk =   0.0160000
        k(  119) = (   0.3000000  -0.5000000  -0.3000000), wk =   0.0160000
        k(  120) = (   0.3000000  -0.5000000  -0.2000000), wk =   0.0080000
        k(  121) = (   0.3000000  -0.4000000  -0.4000000), wk =   0.0080000
        k(  122) = (   0.3000000  -0.4000000  -0.3000000), wk =   0.0080000
        k(  123) = (   0.4000000   0.0000000   0.0000000), wk =   0.0080000
        k(  124) = (   0.4000000   0.0000000   0.1000000), wk =   0.0160000
        k(  125) = (   0.4000000   0.0000000   0.2000000), wk =   0.0160000
        k(  126) = (   0.4000000   0.0000000   0.3000000), wk =   0.0160000
        k(  127) = (   0.4000000   0.0000000   0.4000000), wk =   0.0080000
        k(  128) = (   0.4000000   0.0000000  -0.5000000), wk =   0.0160000
        k(  129) = (   0.4000000   0.0000000  -0.4000000), wk =   0.0160000
        k(  130) = (   0.4000000   0.0000000  -0.3000000), wk =   0.0160000
        k(  131) = (   0.4000000   0.0000000  -0.2000000), wk =   0.0160000
        k(  132) = (   0.4000000   0.0000000  -0.1000000), wk =   0.0160000
        k(  133) = (   0.4000000   0.1000000   0.1000000), wk =   0.0080000
        k(  134) = (   0.4000000   0.1000000   0.2000000), wk =   0.0160000
        k(  135) = (   0.4000000   0.1000000   0.3000000), wk =   0.0080000
        k(  136) = (   0.4000000   0.1000000  -0.5000000), wk =   0.0160000
        k(  137) = (   0.4000000   0.1000000  -0.4000000), wk =   0.0160000
        k(  138) = (   0.4000000   0.1000000  -0.3000000), wk =   0.0160000
        k(  139) = (   0.4000000   0.1000000  -0.2000000), wk =   0.0160000
        k(  140) = (   0.4000000   0.1000000  -0.1000000), wk =   0.0160000
        k(  141) = (   0.4000000   0.2000000   0.2000000), wk =   0.0040000
        k(  142) = (   0.4000000   0.2000000  -0.5000000), wk =   0.0160000
        k(  143) = (   0.4000000   0.2000000  -0.4000000), wk =   0.0160000
        k(  144) = (   0.4000000   0.2000000  -0.3000000), wk =   0.0080000
        k(  145) = (   0.4000000  -0.5000000  -0.5000000), wk =   0.0080000
        k(  146) = (   0.4000000  -0.5000000  -0.4000000), wk =   0.0160000
        k(  147) = (   0.4000000  -0.5000000  -0.3000000), wk =   0.0160000
        k(  148) = (   0.4000000  -0.5000000  -0.2000000), wk =   0.0160000
        k(  149) = (   0.4000000  -0.5000000  -0.1000000), wk =   0.0080000
        k(  150) = (   0.4000000  -0.4000000  -0.4000000), wk =   0.0080000
        k(  151) = (   0.4000000  -0.4000000  -0.3000000), wk =   0.0160000
        k(  152) = (   0.4000000  -0.4000000  -0.2000000), wk =   0.0080000
        k(  153) = (   0.4000000  -0.3000000  -0.3000000), wk =   0.0040000
        k(  154) = (  -0.5000000   0.0000000   0.0000000), wk =   0.0040000
        k(  155) = (  -0.5000000   0.0000000   0.1000000), wk =   0.0160000
        k(  156) = (  -0.5000000   0.0000000   0.2000000), wk =   0.0160000
        k(  157) = (  -0.5000000   0.0000000   0.3000000), wk =   0.0160000
        k(  158) = (  -0.5000000   0.0000000   0.4000000), wk =   0.0160000
        k(  159) = (  -0.5000000  -0.0000000  -0.5000000), wk =   0.0040000
        k(  160) = (  -0.5000000   0.1000000   0.1000000), wk =   0.0080000
        k(  161) = (  -0.5000000   0.1000000   0.2000000), wk =   0.0160000
        k(  162) = (  -0.5000000   0.1000000   0.3000000), wk =   0.0160000
        k(  163) = (  -0.5000000   0.1000000   0.4000000), wk =   0.0080000
        k(  164) = (  -0.5000000   0.1000000  -0.4000000), wk =   0.0080000
        k(  165) = (  -0.5000000   0.1000000  -0.3000000), wk =   0.0160000
        k(  166) = (  -0.5000000   0.1000000  -0.2000000), wk =   0.0160000
        k(  167) = (  -0.5000000   0.1000000  -0.1000000), wk =   0.0080000
        k(  168) = (  -0.5000000   0.2000000   0.2000000), wk =   0.0080000
        k(  169) = (  -0.5000000   0.2000000   0.3000000), wk =   0.0080000
        k(  170) = (  -0.5000000   0.2000000  -0.3000000), wk =   0.0080000
        k(  171) = (  -0.5000000   0.2000000  -0.2000000), wk =   0.0080000

     Dense  grid:    20295 G-vectors     FFT dimensions: (  40,  40,  40)

     Smooth grid:    12361 G-vectors     FFT dimensions: (  36,  36,  36)

     Dynamical RAM for                 wfc:       0.02 MB

     Dynamical RAM for     wfc (w. buffer):       4.06 MB

     Dynamical RAM for           str. fact:       0.05 MB

     Dynamical RAM for           local pot:       0.00 MB

     Dynamical RAM for          nlocal pot:       0.07 MB

     Dynamical RAM for                qrad:       4.15 MB

     Dynamical RAM for          rho,v,vnew:       0.22 MB

     Dynamical RAM for               rhoin:       0.07 MB

     Dynamical RAM for            rho*nmix:       0.41 MB

     Dynamical RAM for           G-vectors:       0.10 MB

     Dynamical RAM for          h,s,v(r/c):       0.01 MB

     Dynamical RAM for          <psi|beta>:       0.01 MB

     Dynamical RAM for                 psi:       0.09 MB

     Dynamical RAM for                hpsi:       0.09 MB

     Dynamical RAM for                spsi:       0.09 MB

     Dynamical RAM for      wfcinit/wfcrot:       0.05 MB

     Dynamical RAM for           addusdens:       5.32 MB

     Dynamical RAM for          addusforce:       5.42 MB

     Dynamical RAM for         addusstress:       5.68 MB

     Estimated static dynamical RAM per process >       9.47 MB

     Estimated max dynamical RAM per process >      15.15 MB

     Estimated total dynamical RAM >     181.84 MB

     Initial potential from superposition of free atoms

     starting charge   15.69974, renormalised to   16.00000
     Starting wfcs are   12 randomized atomic wfcs

     total cpu time spent up to now is        0.7 secs

     Self-consistent Calculation

     iteration #  1     ecut=    45.00 Ry     beta= 0.30
     Davidson diagonalization with overlap
     ethr =  1.00E-02,  avg # of iterations =  4.5

     total cpu time spent up to now is        3.2 secs

     total energy              =    -149.37596042 Ry
     Harris-Foulkes estimate   =    -149.40609610 Ry
     estimated scf accuracy    <       0.17601745 Ry

     iteration #  2     ecut=    45.00 Ry     beta= 0.30
     Davidson diagonalization with overlap
     ethr =  1.10E-03,  avg # of iterations =  1.0

     total cpu time spent up to now is        4.5 secs

     total energy              =    -149.31974011 Ry
     Harris-Foulkes estimate   =    -149.37977197 Ry
     estimated scf accuracy    <       0.10711051 Ry

     iteration #  3     ecut=    45.00 Ry     beta= 0.30
     Davidson diagonalization with overlap
     ethr =  6.69E-04,  avg # of iterations =  2.1

     total cpu time spent up to now is        6.1 secs

     total energy              =    -149.33445925 Ry
     Harris-Foulkes estimate   =    -149.33745180 Ry
     estimated scf accuracy    <       0.00771206 Ry

     iteration #  4     ecut=    45.00 Ry     beta= 0.30
     Davidson diagonalization with overlap
     ethr =  4.82E-05,  avg # of iterations =  3.4

     total cpu time spent up to now is        8.1 secs

     total energy              =    -149.33379665 Ry
     Harris-Foulkes estimate   =    -149.33486233 Ry
     estimated scf accuracy    <       0.00180760 Ry

     iteration #  5     ecut=    45.00 Ry     beta= 0.30
     Davidson diagonalization with overlap
     ethr =  1.13E-05,  avg # of iterations =  2.2

     total cpu time spent up to now is        9.9 secs

     total energy              =    -149.33398397 Ry
     Harris-Foulkes estimate   =    -149.33396839 Ry
     estimated scf accuracy    <       0.00008972 Ry

     iteration #  6     ecut=    45.00 Ry     beta= 0.30
     Davidson diagonalization with overlap
     ethr =  5.61E-07,  avg # of iterations =  2.2

     total cpu time spent up to now is       11.6 secs

     total energy              =    -149.33398975 Ry
     Harris-Foulkes estimate   =    -149.33400020 Ry
     estimated scf accuracy    <       0.00003647 Ry

     iteration #  7     ecut=    45.00 Ry     beta= 0.30
     Davidson diagonalization with overlap
     ethr =  2.28E-07,  avg # of iterations =  2.0

     total cpu time spent up to now is       13.3 secs

     total energy              =    -149.33399669 Ry
     Harris-Foulkes estimate   =    -149.33399617 Ry
     estimated scf accuracy    <       0.00000131 Ry

     iteration #  8     ecut=    45.00 Ry     beta= 0.30
     Davidson diagonalization with overlap
     ethr =  8.20E-09,  avg # of iterations =  2.9

     total cpu time spent up to now is       15.2 secs

     total energy              =    -149.33399668 Ry
     Harris-Foulkes estimate   =    -149.33399712 Ry
     estimated scf accuracy    <       0.00000134 Ry

     iteration #  9     ecut=    45.00 Ry     beta= 0.30
     Davidson diagonalization with overlap
     ethr =  8.20E-09,  avg # of iterations =  2.0

     total cpu time spent up to now is       16.9 secs

     total energy              =    -149.33399684 Ry
     Harris-Foulkes estimate   =    -149.33399684 Ry
     estimated scf accuracy    <       0.00000005 Ry

     iteration # 10     ecut=    45.00 Ry     beta= 0.30
     Davidson diagonalization with overlap
     ethr =  3.19E-10,  avg # of iterations =  2.2

     total cpu time spent up to now is       18.7 secs

     total energy              =    -149.33399685 Ry
     Harris-Foulkes estimate   =    -149.33399685 Ry
     estimated scf accuracy    <          7.7E-09 Ry

     iteration # 11     ecut=    45.00 Ry     beta= 0.30
     Davidson diagonalization with overlap
     ethr =  4.83E-11,  avg # of iterations =  2.1

     total cpu time spent up to now is       20.4 secs

     End of self-consistent calculation

          k = 0.0000 0.0000 0.0000 (  1509 PWs)   bands (ev):

   -70.4181 -37.3824 -37.3823 -37.3821  -8.2942   2.9353   2.9894   3.0624
     6.3053  10.5852  10.8670  11.1315

     occupation numbers 
     1.0000   1.0000   1.0000   1.0000   1.0000   1.0000   1.0000   1.0000
     0.0000   0.0000   0.0000   0.0000

          k =-0.0736 0.0736 0.0721 (  1531 PWs)   bands (ev):

   -70.4180 -37.3825 -37.3824 -37.3822  -8.2331   2.5503   2.8997   2.9731
     6.7680  10.7201  10.8538  11.1247

     occupation numbers 
     1.0000   1.0000   1.0000   1.0000   1.0000   1.0000   1.0000   1.0000
     0.0000   0.0000   0.0000   0.0000

          k =-0.1472 0.1472 0.1442 (  1547 PWs)   bands (ev):

   -70.4180 -37.3832 -37.3825 -37.3824  -8.0649   1.6043   2.8112   2.8677
     7.5379  10.7243  10.9022  11.2556

     occupation numbers 
     1.0000   1.0000   1.0000   1.0000   1.0000   1.0000   1.0000   1.0000
     0.0000   0.0000   0.0000   0.0000

          k =-0.2208 0.2208 0.2164 (  1553 PWs)   bands (ev):

   -70.4180 -37.3841 -37.3827 -37.3826  -7.8381   0.6923   2.7104   2.7491
     7.9258  10.7107  10.9184  11.0637

     occupation numbers 
     1.0000   1.0000   1.0000   1.0000   1.0000   1.0000   1.0000   1.0000
     0.0000   0.0000   0.0000   0.0000

          k =-0.2944 0.2944 0.2885 (  1554 PWs)   bands (ev):

   -70.4180 -37.3848 -37.3828 -37.3827  -7.6353   0.0446   2.6348   2.6600
     7.9513  10.4117  10.6857  11.3410

     occupation numbers 
     1.0000   1.0000   1.0000   1.0000   1.0000   1.0000   1.0000   1.0000
     0.0000   0.0000   0.0000   0.0000

          k = 0.3680-0.3680-0.3606 (  1548 PWs)   bands (ev):

   -70.4180 -37.3851 -37.3828 -37.3828  -7.5523  -0.1914   2.6072   2.6275
     7.9247  10.2918  10.5687  11.4483

     occupation numbers 
     1.0000   1.0000   1.0000   1.0000   1.0000   1.0000   1.0000   1.0000
     0.0000   0.0000   0.0000   0.0000

          k = 0.0000 0.0000 0.1442 (  1541 PWs)   bands (ev):

   -70.4180 -37.3826 -37.3825 -37.3822  -8.2165   2.4990   2.8031   2.9504
     6.9342  10.4992  10.8831  11.3865

     occupation numbers 
     1.0000   1.0000   1.0000   1.0000   1.0000   1.0000   1.0000   1.0000
     0.0000   0.0000   0.0000   0.0000

          k =-0.0736 0.0736 0.2164 (  1541 PWs)   bands (ev):

   -70.4180 -37.3830 -37.3826 -37.3823  -8.0874   1.8284   2.6702   2.8336
     7.6110  10.3047  11.1820  11.3499

     occupation numbers 
     1.0000   1.0000   1.0000   1.0000   1.0000   1.0000   1.0000   1.0000
     0.0000   0.0000   0.0000   0.0000

          k =-0.1472 0.1472 0.2885 (  1559 PWs)   bands (ev):

   -70.4180 -37.3838 -37.3828 -37.3826  -7.8811   0.9872   2.5559   2.6666
     8.1245  10.4596  10.8709  11.1764

     occupation numbers 
     1.0000   1.0000   1.0000   1.0000   1.0000   1.0000   1.0000   1.0000
     0.0000   0.0000   0.0000   0.0000

          k =-0.2208 0.2208 0.3606 (  1551 PWs)   bands (ev):

   -70.4180 -37.3845 -37.3829 -37.3828  -7.6667   0.2900   2.4905   2.4995
     8.2476  10.1344  10.8629  11.4303

     occupation numbers 
     1.0000   1.0000   1.0000   1.0000   1.0000   1.0000   1.0000   1.0000
     0.0000   0.0000   0.0000   0.0000

          k = 0.4416-0.4416-0.2885 (  1557 PWs)   bands (ev):

   -70.4180 -37.3850 -37.3829 -37.3829  -7.5364  -0.0793   2.3640   2.5162
     8.2638   9.9095  10.5982  11.8864

     occupation numbers 
     1.0000   1.0000   1.0000   1.0000   1.0000   1.0000   1.0000   1.0000
     0.0000   0.0000   0.0000   0.0000

          k = 0.3680-0.3680-0.2164 (  1560 PWs)   bands (ev):

   -70.4180 -37.3850 -37.3829 -37.3828  -7.5588  -0.0187   2.3237   2.5993
     8.3072   9.9823  10.5427  11.7163

     occupation numbers 
     1.0000   1.0000   1.0000   1.0000   1.0000   1.0000   1.0000   1.0000
     0.0000   0.0000   0.0000   0.0000

          k = 0.2944-0.2944-0.1442 (  1548 PWs)   bands (ev):

   -70.4180 -37.3844 -37.3828 -37.3827  -7.7214   0.4544   2.3829   2.7227
     8.3132  10.3159  10.7272  11.1302

     occupation numbers 
     1.0000   1.0000   1.0000   1.0000   1.0000   1.0000   1.0000   1.0000
     0.0000   0.0000   0.0000   0.0000

          k = 0.2208-0.2208-0.0721 (  1541 PWs)   bands (ev):

   -70.4180 -37.3836 -37.3827 -37.3826  -7.9423   1.2109   2.5339   2.8445
     8.0102  10.4661  11.0065  11.0707

     occupation numbers 
     1.0000   1.0000   1.0000   1.0000   1.0000   1.0000   1.0000   1.0000
     0.0000   0.0000   0.0000   0.0000

          k = 0.1472-0.1472 0.0000 (  1548 PWs)   bands (ev):

   -70.4180 -37.3828 -37.3825 -37.3824  -8.1328   2.0295   2.7517   2.9152
     7.3124  10.6308  10.8685  11.3101

     occupation numbers 
     1.0000   1.0000   1.0000   1.0000   1.0000   1.0000   1.0000   1.0000
     0.0000   0.0000   0.0000   0.0000

          k = 0.0000 0.0000 0.2885 (  1543 PWs)   bands (ev):

   -70.4180 -37.3833 -37.3828 -37.3824  -8.0036   1.6203   2.4887   2.6794
     7.9226   9.7735  11.3536  11.6865

     occupation numbers 
     1.0000   1.0000   1.0000   1.0000   1.0000   1.0000   1.0000   1.0000
     0.0000   0.0000   0.0000   0.0000

          k =-0.0736 0.0736 0.3606 (  1556 PWs)   bands (ev):

   -70.4180 -37.3838 -37.3829 -37.3826  -7.8369   1.0869   2.3389   2.4691
     8.1346   9.6906  10.9661  11.9921

     occupation numbers 
     1.0000   1.0000   1.0000   1.0000   1.0000   1.0000   1.0000   1.0000
     0.0000   0.0000   0.0000   0.0000

          k =-0.1472 0.1472 0.4327 (  1553 PWs)   bands (ev):

   -70.4180 -37.3843 -37.3830 -37.3830  -7.6408   0.5503   2.1482   2.2687
     8.1878   9.9479  10.9302  11.8016

     occupation numbers 
     1.0000   1.0000   1.0000   1.0000   1.0000   1.0000   1.0000   1.0000
     0.0000   0.0000   0.0000   0.0000

          k = 0.5152-0.5152-0.2164 (  1564 PWs)   bands (ev):

   -70.4180 -37.3847 -37.3833 -37.3831  -7.4928   0.1999   1.8448   2.2967
     8.2965   9.8448  11.4529  11.6454

     occupation numbers 
     1.0000   1.0000   1.0000   1.0000   1.0000   1.0000   1.0000   1.0000
     0.0000   0.0000   0.0000   0.0000

          k = 0.4416-0.4416-0.1442 (  1560 PWs)   bands (ev):

   -70.4180 -37.3848 -37.3834 -37.3830  -7.4639   0.1441   1.6814   2.4142
     8.6070   9.6676  11.2185  11.8497

     occupation numbers 
     1.0000   1.0000   1.0000   1.0000   1.0000   1.0000   1.0000   1.0000
     0.0000   0.0000   0.0000   0.0000

          k = 0.3680-0.3680-0.0721 (  1558 PWs)   bands (ev):

   -70.4180 -37.3846 -37.3833 -37.3828  -7.5693   0.3802   1.7365   2.5866
     9.0602   9.5781  11.0981  11.1833

     occupation numbers 
     1.0000   1.0000   1.0000   1.0000   1.0000   1.0000   1.0000   1.0000
     0.0000   0.0000   0.0000   0.0000

          k = 0.2944-0.2944 0.0000 (  1538 PWs)   bands (ev):

   -70.4180 -37.3841 -37.3830 -37.3827  -7.7554   0.7815   2.0519   2.7540
     8.7967  10.0122  10.6554  11.2573

     occupation numbers 
     1.0000   1.0000   1.0000   1.0000   1.0000   1.0000   1.0000   1.0000
     0.0000   0.0000   0.0000   0.0000

          k = 0.0000 0.0000 0.4327 (  1560 PWs)   bands (ev):

   -70.4180 -37.3841 -37.3831 -37.3827  -7.7185   0.8401   2.1487   2.3801
     7.7209   9.1677  11.7290  12.8253

     occupation numbers 
     1.0000   1.0000   1.0000   1.0000   1.0000   1.0000   1.0000   1.0000
     0.0000   0.0000   0.0000   0.0000

          k =-0.0736 0.0736 0.5049 (  1551 PWs)   bands (ev):

   -70.4180 -37.3845 -37.3832 -37.3830  -7.5648   0.5272   2.0453   2.1006
     7.5055   9.1916  11.9773  13.0451

     occupation numbers 
     1.0000   1.0000   1.0000   1.0000   1.0000   1.0000   1.0000   1.0000
     0.0000   0.0000   0.0000   0.0000

          k = 0.5888-0.5888-0.1442 (  1556 PWs)   bands (ev):

   -70.4180 -37.3847 -37.3834 -37.3833  -7.4345   0.3763   1.6007   2.0552
     7.5827   9.7306  11.9530  12.7088

     occupation numbers 
     1.0000   1.0000   1.0000   1.0000   1.0000   1.0000   1.0000   1.0000
     0.0000   0.0000   0.0000   0.0000

          k = 0.5152-0.5152-0.0721 (  1554 PWs)   bands (ev):

   -70.4179 -37.3846 -37.3838 -37.3832  -7.3846   0.4435   1.1439   2.1755
     7.9094  10.2630  11.9584  12.2676

     occupation numbers 
     1.0000   1.0000   1.0000   1.0000   1.0000   1.0000   1.0000   1.0000
     0.0000   0.0000   0.0000   0.0000

          k = 0.4416-0.4416-0.0000 (  1564 PWs)   bands (ev):

   -70.4180 -37.3845 -37.3838 -37.3830  -7.4382   0.4655   1.1720   2.3742
     8.4838  10.2155  11.3723  11.7863

     occupation numbers 
     1.0000   1.0000   1.0000   1.0000   1.0000   1.0000   1.0000   1.0000
     0.0000   0.0000   0.0000   0.0000

          k = 0.0000 0.0000 0.5770 (  1570 PWs)   bands (ev):

   -70.4180 -37.3848 -37.3834 -37.3830  -7.4658   0.3149   1.9031   2.1604
     6.9846   8.7246  13.2030  14.1493

     occupation numbers 
     1.0000   1.0000   1.0000   1.0000   1.0000   1.0000   1.0000   1.0000
     0.0000   0.0000   0.0000   0.0000

          k = 0.6624-0.6624-0.0721 (  1568 PWs)   bands (ev):

   -70.4180 -37.3849 -37.3834 -37.3832  -7.3835   0.2294   1.8745   1.8786
     6.9551   8.9009  13.3503  14.1588

     occupation numbers 
     1.0000   1.0000   1.0000   1.0000   1.0000   1.0000   1.0000   1.0000
     0.0000   0.0000   0.0000   0.0000

          k = 0.5888-0.5888 0.0000 (  1554 PWs)   bands (ev):

   -70.4179 -37.3848 -37.3836 -37.3834  -7.3526   0.3701   1.3408   1.9775
     7.3128   9.6376  12.8813  13.3789

     occupation numbers 
     1.0000   1.0000   1.0000   1.0000   1.0000   1.0000   1.0000   1.0000
     0.0000   0.0000   0.0000   0.0000

          k = 0.0000 0.0000-0.7212 (  1568 PWs)   bands (ev):

   -70.4179 -37.3850 -37.3835 -37.3830  -7.3630   0.1281   1.8149   2.0810
     6.6817   8.5664  14.0673  15.1266

     occupation numbers 
     1.0000   1.0000   1.0000   1.0000   1.0000   1.0000   1.0000   1.0000
     0.0000   0.0000   0.0000   0.0000

          k = 0.0707 0.0707-0.0721 (  1527 PWs)   bands (ev):

   -70.4181 -37.3826 -37.3823 -37.3821  -8.2384   2.4710   2.9424   3.0276
     6.7836  10.5365  10.9111  11.2453

     occupation numbers 
     1.0000   1.0000   1.0000   1.0000   1.0000   1.0000   1.0000   1.0000
     0.0000   0.0000   0.0000   0.0000

          k =-0.0029 0.1443-0.0000 (  1518 PWs)   bands (ev):

   -70.4180 -37.3826 -37.3824 -37.3823  -8.2162   2.5026   2.8680   2.8816
     6.9322  10.4140  11.1480  11.2047

     occupation numbers 
     1.0000   1.0000   1.0000   1.0000   1.0000   1.0000   1.0000   1.0000
     0.0000   0.0000   0.0000   0.0000

          k =-0.0765 0.2179 0.0721 (  1544 PWs)   bands (ev):

   -70.4180 -37.3830 -37.3825 -37.3825  -8.0820   1.8159   2.7290   2.7883
     7.5873  10.2359  11.1594  11.4645

     occupation numbers 
     1.0000   1.0000   1.0000   1.0000   1.0000   1.0000   1.0000   1.0000
     0.0000   0.0000   0.0000   0.0000

          k =-0.1501 0.2915 0.1442 (  1550 PWs)   bands (ev):

   -70.4180 -37.3839 -37.3827 -37.3826  -7.8730   0.9530   2.6047   2.6652
     8.1204  10.2680  10.7202  11.3883

     occupation numbers 
     1.0000   1.0000   1.0000   1.0000   1.0000   1.0000   1.0000   1.0000
     0.0000   0.0000   0.0000   0.0000

          k =-0.2237 0.3651 0.2164 (  1547 PWs)   bands (ev):

   -70.4180 -37.3846 -37.3828 -37.3828  -7.6599   0.2583   2.4965   2.5431
     8.2619   9.9807  11.0154  11.2244

     occupation numbers 
     1.0000   1.0000   1.0000   1.0000   1.0000   1.0000   1.0000   1.0000
     0.0000   0.0000   0.0000   0.0000

          k = 0.4387-0.2973-0.4327 (  1548 PWs)   bands (ev):

   -70.4180 -37.3850 -37.3829 -37.3828  -7.5356  -0.0925   2.3613   2.5463
     8.2739   9.7811  10.7860  11.7510

     occupation numbers 
     1.0000   1.0000   1.0000   1.0000   1.0000   1.0000   1.0000   1.0000
     0.0000   0.0000   0.0000   0.0000

          k = 0.3651-0.2237-0.3606 (  1550 PWs)   bands (ev):

   -70.4180 -37.3849 -37.3830 -37.3828  -7.5659  -0.0075   2.2959   2.6230
     8.3116   9.8799  10.7458  11.7243

     occupation numbers 
     1.0000   1.0000   1.0000   1.0000   1.0000   1.0000   1.0000   1.0000
     0.0000   0.0000   0.0000   0.0000

          k = 0.2915-0.1501-0.2885 (  1547 PWs)   bands (ev):

   -70.4180 -37.3843 -37.3829 -37.3826  -7.7339   0.4845   2.3304   2.7479
     8.3248  10.2511  10.9294  11.1779

     occupation numbers 
     1.0000   1.0000   1.0000   1.0000   1.0000   1.0000   1.0000   1.0000
     0.0000   0.0000   0.0000   0.0000

          k = 0.2179-0.0765-0.2164 (  1546 PWs)   bands (ev):

   -70.4180 -37.3835 -37.3827 -37.3824  -7.9556   1.2394   2.4765   2.8798
     8.0516  10.4914  10.8929  11.2685

     occupation numbers 
     1.0000   1.0000   1.0000   1.0000   1.0000   1.0000   1.0000   1.0000
     0.0000   0.0000   0.0000   0.0000

          k = 0.1443-0.0029-0.1442 (  1540 PWs)   bands (ev):

   -70.4180 -37.3829 -37.3825 -37.3823  -8.1432   2.0069   2.7382   2.9688
     7.3545  10.4741  11.0276  11.3094

     occupation numbers 
     1.0000   1.0000   1.0000   1.0000   1.0000   1.0000   1.0000   1.0000
     0.0000   0.0000   0.0000   0.0000

          k = 0.0707 0.0707 0.2164 (  1542 PWs)   bands (ev):

   -70.4180 -37.3831 -37.3825 -37.3823  -8.0929   1.7660   2.7628   2.8321
     7.6289  10.1947  11.0687  11.6222

     occupation numbers 
     1.0000   1.0000   1.0000   1.0000   1.0000   1.0000   1.0000   1.0000
     0.0000   0.0000   0.0000   0.0000

          k =-0.0029 0.1443 0.2885 (  1552 PWs)   bands (ev):

   -70.4180 -37.3835 -37.3828 -37.3825  -7.9445   1.2940   2.4073   2.7620
     8.2103  10.0146  10.8218  11.7483

     occupation numbers 
     1.0000   1.0000   1.0000   1.0000   1.0000   1.0000   1.0000   1.0000
     0.0000   0.0000   0.0000   0.0000

          k =-0.0765 0.2179 0.3606 (  1559 PWs)   bands (ev):

   -70.4180 -37.3841 -37.3830 -37.3827  -7.7422   0.7261   2.0920   2.6187
     8.5925  10.0258  10.6240  11.6167

     occupation numbers 
     1.0000   1.0000   1.0000   1.0000   1.0000   1.0000   1.0000   1.0000
     0.0000   0.0000   0.0000   0.0000

          k = 0.5859-0.4445-0.2885 (  1550 PWs)   bands (ev):

   -70.4180 -37.3846 -37.3832 -37.3829  -7.5597   0.2478   1.9323   2.4743
     8.6999   9.5555  11.2592  11.5482

     occupation numbers 
     1.0000   1.0000   1.0000   1.0000   1.0000   1.0000   1.0000   1.0000
     0.0000   0.0000   0.0000   0.0000

          k = 0.5123-0.3709-0.2164 (  1554 PWs)   bands (ev):

   -70.4180 -37.3849 -37.3832 -37.3829  -7.4801   0.0460   1.9039   2.4154
     8.7814   9.2820  11.1927  11.8985

     occupation numbers 
     1.0000   1.0000   1.0000   1.0000   1.0000   1.0000   1.0000   1.0000
     0.0000   0.0000   0.0000   0.0000

          k = 0.4387-0.2973-0.1442 (  1551 PWs)   bands (ev):

   -70.4180 -37.3848 -37.3832 -37.3829  -7.5456   0.2045   1.9772   2.4754
     8.7487   9.4577  11.2156  11.3212

     occupation numbers 
     1.0000   1.0000   1.0000   1.0000   1.0000   1.0000   1.0000   1.0000
     0.0000   0.0000   0.0000   0.0000

          k = 0.3651-0.2237-0.0721 (  1547 PWs)   bands (ev):

   -70.4180 -37.3843 -37.3830 -37.3828  -7.7214   0.6708   2.1527   2.6106
     8.5972   9.8712  10.5038  11.5576

     occupation numbers 
     1.0000   1.0000   1.0000   1.0000   1.0000   1.0000   1.0000   1.0000
     0.0000   0.0000   0.0000   0.0000

          k = 0.2915-0.1501-0.0000 (  1547 PWs)   bands (ev):

   -70.4180 -37.3836 -37.3827 -37.3826  -7.9256   1.2832   2.4360   2.7249
     8.1417   9.9746  10.8229  11.6141

     occupation numbers 
     1.0000   1.0000   1.0000   1.0000   1.0000   1.0000   1.0000   1.0000
     0.0000   0.0000   0.0000   0.0000

          k = 0.0707 0.0707 0.3606 (  1544 PWs)   bands (ev):

   -70.4180 -37.3838 -37.3829 -37.3826  -7.8428   1.0428   2.3413   2.5442
     8.1917   9.5726  10.8797  12.3233

     occupation numbers 
     1.0000   1.0000   1.0000   1.0000   1.0000   1.0000   1.0000   1.0000
     0.0000   0.0000   0.0000   0.0000

          k =-0.0029 0.1443 0.4327 (  1556 PWs)   bands (ev):

   -70.4180 -37.3842 -37.3831 -37.3828  -7.6814   0.7137   2.0429   2.3718
     8.1278   9.5581  10.9126  12.7584

     occupation numbers 
     1.0000   1.0000   1.0000   1.0000   1.0000   1.0000   1.0000   1.0000
     0.0000   0.0000   0.0000   0.0000

          k = 0.6595-0.5181-0.2164 (  1555 PWs)   bands (ev):

   -70.4180 -37.3845 -37.3834 -37.3830  -7.5169   0.4537   1.7111   2.1735
     8.1556   9.9131  10.9050  12.5630

     occupation numbers 
     1.0000   1.0000   1.0000   1.0000   1.0000   1.0000   1.0000   1.0000
     0.0000   0.0000   0.0000   0.0000

          k = 0.5859-0.4445-0.1442 (  1555 PWs)   bands (ev):

   -70.4180 -37.3846 -37.3836 -37.3831  -7.4180   0.3381   1.4186   2.1347
     8.3286   9.9063  11.4780  12.1830

     occupation numbers 
     1.0000   1.0000   1.0000   1.0000   1.0000   1.0000   1.0000   1.0000
     0.0000   0.0000   0.0000   0.0000

          k = 0.5123-0.3709-0.0721 (  1555 PWs)   bands (ev):

   -70.4180 -37.3846 -37.3837 -37.3831  -7.4320   0.3681   1.3518   2.2549
     8.6834   9.7328  11.2374  12.0056

     occupation numbers 
     1.0000   1.0000   1.0000   1.0000   1.0000   1.0000   1.0000   1.0000
     0.0000   0.0000   0.0000   0.0000

          k = 0.4387-0.2973-0.0000 (  1558 PWs)   bands (ev):

   -70.4180 -37.3845 -37.3834 -37.3829  -7.5518   0.4795   1.6322   2.4523
     9.0466   9.5711  10.4884  11.9541

     occupation numbers 
     1.0000   1.0000   1.0000   1.0000   1.0000   1.0000   1.0000   1.0000
     0.0000   0.0000   0.0000   0.0000

          k = 0.0707 0.0707 0.5049 (  1563 PWs)   bands (ev):

   -70.4180 -37.3845 -37.3833 -37.3828  -7.5712   0.5038   1.9196   2.2842
     7.5552   9.0929  11.9175  13.2920

     occupation numbers 
     1.0000   1.0000   1.0000   1.0000   1.0000   1.0000   1.0000   1.0000
     0.0000   0.0000   0.0000   0.0000

          k = 0.7331-0.5917-0.1442 (  1562 PWs)   bands (ev):

   -70.4180 -37.3847 -37.3834 -37.3830  -7.4518   0.3613   1.7652   2.0269
     7.4249   9.1810  12.1380  13.8025

     occupation numbers 
     1.0000   1.0000   1.0000   1.0000   1.0000   1.0000   1.0000   1.0000
     0.0000   0.0000   0.0000   0.0000

          k = 0.6595-0.5181-0.0721 (  1557 PWs)   bands (ev):

   -70.4180 -37.3847 -37.3836 -37.3833  -7.3711   0.4143   1.4078   1.8630
     7.6501   9.7919  11.9750  13.0096

     occupation numbers 
     1.0000   1.0000   1.0000   1.0000   1.0000   1.0000   1.0000   1.0000
     0.0000   0.0000   0.0000   0.0000

          k = 0.5859-0.4445-0.0000 (  1562 PWs)   bands (ev):

   -70.4179 -37.3845 -37.3839 -37.3832  -7.3639   0.5991   0.9898   2.0090
     8.0840  10.2966  11.6981  12.1987

     occupation numbers 
     1.0000   1.0000   1.0000   1.0000   1.0000   1.0000   1.0000   1.0000
     0.0000   0.0000   0.0000   0.0000

          k = 0.0707 0.0707-0.7934 (  1568 PWs)   bands (ev):

   -70.4180 -37.3849 -37.3835 -37.3830  -7.3904   0.2213   1.6608   2.1349
     7.0013   8.8040  13.3388  14.3701

     occupation numbers 
     1.0000   1.0000   1.0000   1.0000   1.0000   1.0000   1.0000   1.0000
     0.0000   0.0000   0.0000   0.0000

          k =-0.0029 0.1443-0.7212 (  1568 PWs)   bands (ev):

   -70.4180 -37.3849 -37.3835 -37.3832  -7.3595   0.2474   1.6560   1.8940
     7.1384   9.0411  13.2977  13.6031

     occupation numbers 
     1.0000   1.0000   1.0000   1.0000   1.0000   1.0000   1.0000   1.0000
     0.0000   0.0000   0.0000   0.0000

          k = 0.1414 0.1414-0.1442 (  1543 PWs)   bands (ev):

   -70.4180 -37.3833 -37.3824 -37.3822  -8.0852   1.5358   2.8681   2.9403
     7.6045  10.4715  11.0240  11.3609

     occupation numbers 
     1.0000   1.0000   1.0000   1.0000   1.0000   1.0000   1.0000   1.0000
     0.0000   0.0000   0.0000   0.0000

          k = 0.0678 0.2150-0.0721 (  1537 PWs)   bands (ev):

   -70.4180 -37.3831 -37.3825 -37.3823  -8.0968   1.7873   2.7484   2.8241
     7.6495  10.1875  11.2364  11.4361

     occupation numbers 
     1.0000   1.0000   1.0000   1.0000   1.0000   1.0000   1.0000   1.0000
     0.0000   0.0000   0.0000   0.0000

          k =-0.0058 0.2886-0.0000 (  1532 PWs)   bands (ev):

   -70.4180 -37.3832 -37.3827 -37.3826  -8.0022   1.6285   2.5771   2.5816
     7.9232   9.7431  11.3591  11.8855

     occupation numbers 
     1.0000   1.0000   1.0000   1.0000   1.0000   1.0000   1.0000   1.0000
     0.0000   0.0000   0.0000   0.0000

          k =-0.0794 0.3622 0.0721 (  1552 PWs)   bands (ev):

   -70.4180 -37.3838 -37.3828 -37.3828  -7.8276   1.0572   2.4156   2.4297
     8.1378   9.5833  10.8273  12.1486

     occupation numbers 
     1.0000   1.0000   1.0000   1.0000   1.0000   1.0000   1.0000   1.0000
     0.0000   0.0000   0.0000   0.0000

          k =-0.1530 0.4358 0.1442 (  1550 PWs)   bands (ev):

   -70.4180 -37.3845 -37.3830 -37.3829  -7.6303   0.4917   2.1568   2.3450
     8.2354   9.7685  10.6828  11.9229

     occupation numbers 
     1.0000   1.0000   1.0000   1.0000   1.0000   1.0000   1.0000   1.0000
     0.0000   0.0000   0.0000   0.0000

          k = 0.5094-0.2266-0.5049 (  1552 PWs)   bands (ev):

   -70.4180 -37.3849 -37.3832 -37.3830  -7.4901   0.1528   1.8627   2.3607
     8.3601   9.6969  11.3623  11.5895

     occupation numbers 
     1.0000   1.0000   1.0000   1.0000   1.0000   1.0000   1.0000   1.0000
     0.0000   0.0000   0.0000   0.0000

          k = 0.4358-0.1530-0.4327 (  1551 PWs)   bands (ev):

   -70.4180 -37.3848 -37.3834 -37.3829  -7.4757   0.1399   1.6692   2.4669
     8.6688   9.5660  11.3738  11.8260

     occupation numbers 
     1.0000   1.0000   1.0000   1.0000   1.0000   1.0000   1.0000   1.0000
     0.0000   0.0000   0.0000   0.0000

          k = 0.3622-0.0794-0.3606 (  1546 PWs)   bands (ev):

   -70.4180 -37.3844 -37.3833 -37.3827  -7.5944   0.4193   1.6884   2.6323
     9.1016   9.5598  11.1718  11.3959

     occupation numbers 
     1.0000   1.0000   1.0000   1.0000   1.0000   1.0000   1.0000   1.0000
     0.0000   0.0000   0.0000   0.0000

          k = 0.2886-0.0058-0.2885 (  1550 PWs)   bands (ev):

   -70.4180 -37.3840 -37.3830 -37.3826  -7.7863   0.8125   2.0161   2.8010
     8.8891  10.0324  10.6359  11.4880

     occupation numbers 
     1.0000   1.0000   1.0000   1.0000   1.0000   1.0000   1.0000   1.0000
     0.0000   0.0000   0.0000   0.0000

          k = 0.2150 0.0678-0.2164 (  1548 PWs)   bands (ev):

   -70.4180 -37.3836 -37.3826 -37.3824  -7.9708   1.1835   2.5588   2.9038
     8.1155  10.3484  11.0144  11.2615

     occupation numbers 
     1.0000   1.0000   1.0000   1.0000   1.0000   1.0000   1.0000   1.0000
     0.0000   0.0000   0.0000   0.0000

          k = 0.1414 0.1414-0.0000 (  1535 PWs)   bands (ev):

   -70.4180 -37.3829 -37.3825 -37.3821  -8.1529   1.9940   2.7111   3.0279
     7.3971  10.3529  11.0758  11.3803

     occupation numbers 
     1.0000   1.0000   1.0000   1.0000   1.0000   1.0000   1.0000   1.0000
     0.0000   0.0000   0.0000   0.0000

          k =-0.0058 0.2886 0.1442 (  1543 PWs)   bands (ev):

   -70.4180 -37.3835 -37.3827 -37.3825  -7.9434   1.2994   2.4103   2.7534
     8.2121   9.9839  10.8355  11.7805

     occupation numbers 
     1.0000   1.0000   1.0000   1.0000   1.0000   1.0000   1.0000   1.0000
     0.0000   0.0000   0.0000   0.0000

          k =-0.0794 0.3622 0.2164 (  1550 PWs)   bands (ev):

   -70.4180 -37.3841 -37.3830 -37.3827  -7.7386   0.7012   2.1156   2.6326
     8.6435   9.9166  10.4861  11.6848

     occupation numbers 
     1.0000   1.0000   1.0000   1.0000   1.0000   1.0000   1.0000   1.0000
     0.0000   0.0000   0.0000   0.0000

          k = 0.5830-0.3002-0.4327 (  1547 PWs)   bands (ev):

   -70.4180 -37.3847 -37.3832 -37.3828  -7.5579   0.2159   1.9762   2.4820
     8.7655   9.4828  11.1887  11.4590

     occupation numbers 
     1.0000   1.0000   1.0000   1.0000   1.0000   1.0000   1.0000   1.0000
     0.0000   0.0000   0.0000   0.0000

          k = 0.5094-0.2266-0.3606 (  1548 PWs)   bands (ev):

   -70.4180 -37.3849 -37.3832 -37.3829  -7.4846   0.0306   1.9416   2.4129
     8.8108   9.2695  11.2701  11.8099

     occupation numbers 
     1.0000   1.0000   1.0000   1.0000   1.0000   1.0000   1.0000   1.0000
     0.0000   0.0000   0.0000   0.0000

          k = 0.1414 0.1414 0.2885 (  1546 PWs)   bands (ev):

   -70.4180 -37.3839 -37.3826 -37.3824  -7.9023   0.9010   2.6772   2.7221
     8.2401  10.1526  10.7420  11.5592

     occupation numbers 
     1.0000   1.0000   1.0000   1.0000   1.0000   1.0000   1.0000   1.0000
     0.0000   0.0000   0.0000   0.0000

          k = 0.0678 0.2150 0.3606 (  1549 PWs)   bands (ev):

   -70.4180 -37.3841 -37.3829 -37.3826  -7.7583   0.6627   2.1702   2.6673
     8.7608   9.8584  10.4888  11.7803

     occupation numbers 
     1.0000   1.0000   1.0000   1.0000   1.0000   1.0000   1.0000   1.0000
     0.0000   0.0000   0.0000   0.0000

          k = 0.7302-0.4474-0.2885 (  1552 PWs)   bands (ev):

   -70.4180 -37.3843 -37.3834 -37.3828  -7.5856   0.5170   1.6038   2.4899
     9.0797   9.7067  10.5650  12.1252

     occupation numbers 
     1.0000   1.0000   1.0000   1.0000   1.0000   1.0000   1.0000   1.0000
     0.0000   0.0000   0.0000   0.0000

          k = 0.6566-0.3738-0.2164 (  1550 PWs)   bands (ev):

   -70.4180 -37.3846 -37.3837 -37.3830  -7.4510   0.3956   1.3161   2.2959
     8.7472   9.6834  11.4097  12.0796

     occupation numbers 
     1.0000   1.0000   1.0000   1.0000   1.0000   1.0000   1.0000   1.0000
     0.0000   0.0000   0.0000   0.0000

          k = 0.5830-0.3002-0.1442 (  1553 PWs)   bands (ev):

   -70.4180 -37.3847 -37.3836 -37.3831  -7.4160   0.3026   1.4238   2.1864
     8.3945   9.7834  11.2762  12.2655

     occupation numbers 
     1.0000   1.0000   1.0000   1.0000   1.0000   1.0000   1.0000   1.0000
     0.0000   0.0000   0.0000   0.0000

          k = 0.5094-0.2266-0.0721 (  1552 PWs)   bands (ev):

   -70.4180 -37.3847 -37.3833 -37.3830  -7.4988   0.3916   1.7367   2.2174
     8.1838   9.7613  10.6838  12.5548

     occupation numbers 
     1.0000   1.0000   1.0000   1.0000   1.0000   1.0000   1.0000   1.0000
     0.0000   0.0000   0.0000   0.0000

          k = 0.4358-0.1530-0.0000 (  1558 PWs)   bands (ev):

   -70.4180 -37.3843 -37.3831 -37.3829  -7.6591   0.6797   2.0816   2.3538
     8.0910   9.4849  10.7606  12.6771

     occupation numbers 
     1.0000   1.0000   1.0000   1.0000   1.0000   1.0000   1.0000   1.0000
     0.0000   0.0000   0.0000   0.0000

          k = 0.1414 0.1414 0.4327 (  1558 PWs)   bands (ev):

   -70.4180 -37.3844 -37.3830 -37.3827  -7.6637   0.4699   2.1243   2.4719
     8.3716   9.7064  10.7208  12.1259

     occupation numbers 
     1.0000   1.0000   1.0000   1.0000   1.0000   1.0000   1.0000   1.0000
     0.0000   0.0000   0.0000   0.0000

          k = 0.8038-0.5210-0.2164 (  1554 PWs)   bands (ev):

   -70.4180 -37.3845 -37.3833 -37.3829  -7.5343   0.4009   1.7240   2.2781
     8.2878   9.7764  10.8037  12.7194

     occupation numbers 
     1.0000   1.0000   1.0000   1.0000   1.0000   1.0000   1.0000   1.0000
     0.0000   0.0000   0.0000   0.0000

          k = 0.7302-0.4474-0.1442 (  1557 PWs)   bands (ev):

   -70.4180 -37.3845 -37.3837 -37.3831  -7.4182   0.4866   1.3225   1.9748
     8.3737  10.2777  10.6722  12.7224

     occupation numbers 
     1.0000   1.0000   1.0000   1.0000   1.0000   1.0000   1.0000   1.0000
     0.0000   0.0000   0.0000   0.0000

          k = 0.6566-0.3738-0.0721 (  1557 PWs)   bands (ev):

   -70.4179 -37.3845 -37.3839 -37.3832  -7.3636   0.5867   1.1079   1.8320
     8.4140  10.2676  11.1598  12.0810

     occupation numbers 
     1.0000   1.0000   1.0000   1.0000   1.0000   1.0000   1.0000   1.0000
     0.0000   0.0000   0.0000   0.0000

          k = 0.5830-0.3002-0.0000 (  1557 PWs)   bands (ev):

   -70.4179 -37.3846 -37.3837 -37.3832  -7.3951   0.4591   1.3346   1.9613
     8.3472  10.2302  10.4521  12.8217

     occupation numbers 
     1.0000   1.0000   1.0000   1.0000   1.0000   1.0000   1.0000   1.0000
     0.0000   0.0000   0.0000   0.0000

          k = 0.1414 0.1414-0.8655 (  1551 PWs)   bands (ev):

   -70.4180 -37.3847 -37.3835 -37.3829  -7.4593   0.3238   1.5231   2.2832
     7.7349   9.4642  11.8769  12.9995

     occupation numbers 
     1.0000   1.0000   1.0000   1.0000   1.0000   1.0000   1.0000   1.0000
     0.0000   0.0000   0.0000   0.0000

          k = 0.0678 0.2150-0.7934 (  1559 PWs)   bands (ev):

   -70.4180 -37.3847 -37.3837 -37.3830  -7.3897   0.3888   1.3265   2.0326
     7.7675   9.6053  11.9847  13.1060

     occupation numbers 
     1.0000   1.0000   1.0000   1.0000   1.0000   1.0000   1.0000   1.0000
     0.0000   0.0000   0.0000   0.0000

          k =-0.0058 0.2886-0.7212 (  1558 PWs)   bands (ev):

   -70.4179 -37.3846 -37.3838 -37.3833  -7.3531   0.5585   1.2431   1.6650
     8.1185  10.2307  11.7674  11.7946

     occupation numbers 
     1.0000   1.0000   1.0000   1.0000   1.0000   1.0000   1.0000   1.0000
     0.0000   0.0000   0.0000   0.0000

          k = 0.1414 0.1414-0.7212 (  1562 PWs)   bands (ev):

   -70.4180 -37.3848 -37.3837 -37.3829  -7.3784   0.3466   1.2244   2.2139
     7.4612   9.3564  12.9118  13.6739

     occupation numbers 
     1.0000   1.0000   1.0000   1.0000   1.0000   1.0000   1.0000   1.0000
     0.0000   0.0000   0.0000   0.0000

          k = 0.2121 0.2121-0.2164 (  1552 PWs)   bands (ev):

   -70.4180 -37.3841 -37.3825 -37.3824  -7.8796   0.6418   2.7835   2.8393
     8.0492  10.7503  10.8913  11.1469

     occupation numbers 
     1.0000   1.0000   1.0000   1.0000   1.0000   1.0000   1.0000   1.0000
     0.0000   0.0000   0.0000   0.0000

          k = 0.1385 0.2857-0.1442 (  1543 PWs)   bands (ev):

   -70.4180 -37.3838 -37.3826 -37.3824  -7.9085   0.9358   2.6462   2.7060
     8.2424  10.3034  10.8772  11.3755

     occupation numbers 
     1.0000   1.0000   1.0000   1.0000   1.0000   1.0000   1.0000   1.0000
     0.0000   0.0000   0.0000   0.0000

          k = 0.0649 0.3593-0.0721 (  1541 PWs)   bands (ev):

   -70.4180 -37.3837 -37.3828 -37.3827  -7.8479   1.0835   2.3850   2.4503
     8.2089   9.6170  11.0317  12.1561

     occupation numbers 
     1.0000   1.0000   1.0000   1.0000   1.0000   1.0000   1.0000   1.0000
     0.0000   0.0000   0.0000   0.0000

          k =-0.0087 0.4329-0.0000 (  1545 PWs)   bands (ev):

   -70.4180 -37.3841 -37.3830 -37.3829  -7.7154   0.8457   2.2591   2.2614
     7.7377   9.1394  11.7010  12.9545

     occupation numbers 
     1.0000   1.0000   1.0000   1.0000   1.0000   1.0000   1.0000   1.0000
     0.0000   0.0000   0.0000   0.0000

          k =-0.0823 0.5065 0.0721 (  1555 PWs)   bands (ev):

   -70.4180 -37.3845 -37.3831 -37.3831  -7.5551   0.4957   2.0362   2.1527
     7.5250   9.0947  11.7866  13.1179

     occupation numbers 
     1.0000   1.0000   1.0000   1.0000   1.0000   1.0000   1.0000   1.0000
     0.0000   0.0000   0.0000   0.0000

          k = 0.5801-0.1559-0.5770 (  1556 PWs)   bands (ev):

   -70.4180 -37.3848 -37.3834 -37.3831  -7.4301   0.3207   1.5929   2.1541
     7.6442   9.5464  11.7440  12.7799

     occupation numbers 
     1.0000   1.0000   1.0000   1.0000   1.0000   1.0000   1.0000   1.0000
     0.0000   0.0000   0.0000   0.0000

          k = 0.5065-0.0823-0.5049 (  1555 PWs)   bands (ev):

   -70.4179 -37.3847 -37.3837 -37.3830  -7.3970   0.4028   1.1517   2.2634
     8.0005  10.0984  11.8473  12.4017

     occupation numbers 
     1.0000   1.0000   1.0000   1.0000   1.0000   1.0000   1.0000   1.0000
     0.0000   0.0000   0.0000   0.0000

          k = 0.4329-0.0087-0.4327 (  1548 PWs)   bands (ev):

   -70.4180 -37.3844 -37.3838 -37.3829  -7.4710   0.4826   1.1496   2.4513
     8.5866  10.1985  11.3966  12.0140

     occupation numbers 
     1.0000   1.0000   1.0000   1.0000   1.0000   1.0000   1.0000   1.0000
     0.0000   0.0000   0.0000   0.0000

          k = 0.3593 0.0649-0.3606 (  1549 PWs)   bands (ev):

   -70.4180 -37.3844 -37.3832 -37.3827  -7.6158   0.3883   1.7455   2.6576
     9.2161   9.6559  11.0320  11.4565

     occupation numbers 
     1.0000   1.0000   1.0000   1.0000   1.0000   1.0000   1.0000   1.0000
     0.0000   0.0000   0.0000   0.0000

          k = 0.2857 0.1385-0.2885 (  1547 PWs)   bands (ev):

   -70.4180 -37.3843 -37.3827 -37.3825  -7.7705   0.4318   2.4372   2.7972
     8.4692  10.3349  10.9493  11.1001

     occupation numbers 
     1.0000   1.0000   1.0000   1.0000   1.0000   1.0000   1.0000   1.0000
     0.0000   0.0000   0.0000   0.0000

          k = 0.2121 0.2121-0.0721 (  1545 PWs)   bands (ev):

   -70.4180 -37.3835 -37.3827 -37.3823  -7.9830   1.2118   2.4914   2.9525
     8.1645  10.3822  10.8671  11.4657

     occupation numbers 
     1.0000   1.0000   1.0000   1.0000   1.0000   1.0000   1.0000   1.0000
     0.0000   0.0000   0.0000   0.0000

          k = 0.1385 0.2857-0.0000 (  1542 PWs)   bands (ev):

   -70.4180 -37.3834 -37.3828 -37.3824  -7.9608   1.3140   2.3775   2.7927
     8.2902   9.9953  10.8520  11.8934

     occupation numbers 
     1.0000   1.0000   1.0000   1.0000   1.0000   1.0000   1.0000   1.0000
     0.0000   0.0000   0.0000   0.0000

          k =-0.0087 0.4329 0.1442 (  1552 PWs)   bands (ev):

   -70.4180 -37.3842 -37.3831 -37.3829  -7.6787   0.7190   2.0529   2.3555
     8.1485   9.5222  10.8982  12.7554

     occupation numbers 
     1.0000   1.0000   1.0000   1.0000   1.0000   1.0000   1.0000   1.0000
     0.0000   0.0000   0.0000   0.0000

          k = 0.6537-0.2294-0.5049 (  1548 PWs)   bands (ev):

   -70.4180 -37.3846 -37.3833 -37.3830  -7.5134   0.4127   1.7516   2.1938
     8.2193   9.8044  10.7881  12.5289

     occupation numbers 
     1.0000   1.0000   1.0000   1.0000   1.0000   1.0000   1.0000   1.0000
     0.0000   0.0000   0.0000   0.0000

          k = 0.5801-0.1559-0.4327 (  1549 PWs)   bands (ev):

   -70.4180 -37.3848 -37.3835 -37.3831  -7.4230   0.2880   1.4772   2.1598
     8.4038   9.8769  11.3205  12.1843

     occupation numbers 
     1.0000   1.0000   1.0000   1.0000   1.0000   1.0000   1.0000   1.0000
     0.0000   0.0000   0.0000   0.0000

          k = 0.5065-0.0823-0.3606 (  1549 PWs)   bands (ev):

   -70.4180 -37.3846 -37.3836 -37.3830  -7.4515   0.3661   1.3617   2.2890
     8.7459   9.7865  11.2499  12.0467

     occupation numbers 
     1.0000   1.0000   1.0000   1.0000   1.0000   1.0000   1.0000   1.0000
     0.0000   0.0000   0.0000   0.0000

          k = 0.4329-0.0087-0.2885 (  1547 PWs)   bands (ev):

   -70.4180 -37.3843 -37.3834 -37.3828  -7.5841   0.5197   1.5983   2.4933
     9.1044   9.7005  10.5172  12.1199

     occupation numbers 
     1.0000   1.0000   1.0000   1.0000   1.0000   1.0000   1.0000   1.0000
     0.0000   0.0000   0.0000   0.0000

          k = 0.3593 0.0649-0.2164 (  1554 PWs)   bands (ev):

   -70.4180 -37.3841 -37.3829 -37.3827  -7.7592   0.6915   2.1449   2.6517
     8.7156   9.9588  10.5853  11.7282

     occupation numbers 
     1.0000   1.0000   1.0000   1.0000   1.0000   1.0000   1.0000   1.0000
     0.0000   0.0000   0.0000   0.0000

          k = 0.2121 0.2121 0.3606 (  1553 PWs)   bands (ev):

   -70.4180 -37.3845 -37.3827 -37.3825  -7.7102   0.2197   2.5456   2.6589
     8.4368  10.0266  11.0567  11.2689

     occupation numbers 
     1.0000   1.0000   1.0000   1.0000   1.0000   1.0000   1.0000   1.0000
     0.0000   0.0000   0.0000   0.0000

          k = 0.8745-0.4502-0.2885 (  1547 PWs)   bands (ev):

   -70.4180 -37.3846 -37.3831 -37.3827  -7.5985   0.1852   2.0302   2.5534
     8.9749   9.5236  11.0852  11.5524

     occupation numbers 
     1.0000   1.0000   1.0000   1.0000   1.0000   1.0000   1.0000   1.0000
     0.0000   0.0000   0.0000   0.0000

          k = 0.8009-0.3766-0.2164 (  1545 PWs)   bands (ev):

   -70.4180 -37.3845 -37.3836 -37.3829  -7.4738   0.3596   1.3790   2.3186
     8.7964   9.9418  11.1228  12.1524

     occupation numbers 
     1.0000   1.0000   1.0000   1.0000   1.0000   1.0000   1.0000   1.0000
     0.0000   0.0000   0.0000   0.0000

          k = 0.7273-0.3030-0.1442 (  1557 PWs)   bands (ev):

   -70.4180 -37.3845 -37.3839 -37.3831  -7.3836   0.5850   0.9829   2.0813
     8.1890  10.2238  11.6741  12.2622

     occupation numbers 
     1.0000   1.0000   1.0000   1.0000   1.0000   1.0000   1.0000   1.0000
     0.0000   0.0000   0.0000   0.0000

          k = 0.6537-0.2294-0.0721 (  1566 PWs)   bands (ev):

   -70.4179 -37.3848 -37.3836 -37.3832  -7.3675   0.3812   1.3774   1.9474
     7.7073   9.6515  11.7226  13.2376

     occupation numbers 
     1.0000   1.0000   1.0000   1.0000   1.0000   1.0000   1.0000   1.0000
     0.0000   0.0000   0.0000   0.0000

          k = 0.5801-0.1559-0.0000 (  1561 PWs)   bands (ev):

   -70.4179 -37.3848 -37.3833 -37.3832  -7.4344   0.3296   1.8176   1.9987
     7.4137   9.1243  11.8910  13.8242

     occupation numbers 
     1.0000   1.0000   1.0000   1.0000   1.0000   1.0000   1.0000   1.0000
     0.0000   0.0000   0.0000   0.0000

          k = 0.2121 0.2121-0.9376 (  1546 PWs)   bands (ev):

   -70.4180 -37.3847 -37.3832 -37.3827  -7.5392   0.1319   1.8720   2.4830
     8.5348   9.7518  11.2355  11.8304

     occupation numbers 
     1.0000   1.0000   1.0000   1.0000   1.0000   1.0000   1.0000   1.0000
     0.0000   0.0000   0.0000   0.0000

          k = 0.1385 0.2857-0.8655 (  1549 PWs)   bands (ev):

   -70.4180 -37.3846 -37.3835 -37.3829  -7.4592   0.2849   1.4499   2.2659
     8.5249   9.9459  11.1937  12.3894

     occupation numbers 
     1.0000   1.0000   1.0000   1.0000   1.0000   1.0000   1.0000   1.0000
     0.0000   0.0000   0.0000   0.0000

          k = 0.0649 0.3593-0.7934 (  1560 PWs)   bands (ev):

   -70.4180 -37.3844 -37.3838 -37.3831  -7.3873   0.5705   1.1290   1.8722
     8.4875  10.5435  11.0483  11.8948

     occupation numbers 
     1.0000   1.0000   1.0000   1.0000   1.0000   1.0000   1.0000   1.0000
     0.0000   0.0000   0.0000   0.0000

          k =-0.0087 0.4329-0.7212 (  1565 PWs)   bands (ev):

   -70.4179 -37.3845 -37.3838 -37.3833  -7.3514   0.5612   1.2449   1.6591
     8.1391  10.2090  11.5156  12.0434

     occupation numbers 
     1.0000   1.0000   1.0000   1.0000   1.0000   1.0000   1.0000   1.0000
     0.0000   0.0000   0.0000   0.0000

          k = 0.2121 0.2121-0.7934 (  1549 PWs)   bands (ev):

   -70.4180 -37.3846 -37.3837 -37.3828  -7.4335   0.3938   1.1323   2.3769
     8.1182  10.0401  11.8889  12.6368

     occupation numbers 
     1.0000   1.0000   1.0000   1.0000   1.0000   1.0000   1.0000   1.0000
     0.0000   0.0000   0.0000   0.0000

          k = 0.1385 0.2857-0.7212 (  1555 PWs)   bands (ev):

   -70.4180 -37.3845 -37.3839 -37.3829  -7.4062   0.5674   0.9737   2.1627
     8.2735  10.1919  11.7413  12.2058

     occupation numbers 
     1.0000   1.0000   1.0000   1.0000   1.0000   1.0000   1.0000   1.0000
     0.0000   0.0000   0.0000   0.0000

          k = 0.2828 0.2828-0.2885 (  1541 PWs)   bands (ev):

   -70.4180 -37.3847 -37.3826 -37.3825  -7.6970   0.0127   2.7195   2.7625
     8.1042  10.5753  10.8750  11.2653

     occupation numbers 
     1.0000   1.0000   1.0000   1.0000   1.0000   1.0000   1.0000   1.0000
     0.0000   0.0000   0.0000   0.0000

          k = 0.2092 0.3564-0.2164 (  1547 PWs)   bands (ev):

   -70.4180 -37.3844 -37.3827 -37.3826  -7.7152   0.2492   2.5475   2.6103
     8.4142  10.1872  11.0614  11.3007

     occupation numbers 
     1.0000   1.0000   1.0000   1.0000   1.0000   1.0000   1.0000   1.0000
     0.0000   0.0000   0.0000   0.0000

          k = 0.1356 0.4300-0.1442 (  1550 PWs)   bands (ev):

   -70.4180 -37.3842 -37.3830 -37.3828  -7.6696   0.5298   2.1227   2.3863
     8.3371   9.8613  10.9530  11.9920

     occupation numbers 
     1.0000   1.0000   1.0000   1.0000   1.0000   1.0000   1.0000   1.0000
     0.0000   0.0000   0.0000   0.0000

          k = 0.0621 0.5036-0.0721 (  1548 PWs)   bands (ev):

   -70.4180 -37.3844 -37.3832 -37.3830  -7.5736   0.5422   1.9792   2.1696
     7.5749   9.1323  12.0765  13.2181

     occupation numbers 
     1.0000   1.0000   1.0000   1.0000   1.0000   1.0000   1.0000   1.0000
     0.0000   0.0000   0.0000   0.0000

          k =-0.0115 0.5772-0.0000 (  1557 PWs)   bands (ev):

   -70.4180 -37.3848 -37.3832 -37.3832  -7.4611   0.3165   2.0278   2.0300
     7.0043   8.6977  13.1385  14.2285

     occupation numbers 
     1.0000   1.0000   1.0000   1.0000   1.0000   1.0000   1.0000   1.0000
     0.0000   0.0000   0.0000   0.0000

          k = 0.6508-0.0851-0.6491 (  1565 PWs)   bands (ev):

   -70.4179 -37.3849 -37.3834 -37.3833  -7.3782   0.2142   1.7798   2.0013
     6.9892   8.8165  13.1718  14.2011

     occupation numbers 
     1.0000   1.0000   1.0000   1.0000   1.0000   1.0000   1.0000   1.0000
     0.0000   0.0000   0.0000   0.0000

          k = 0.5772-0.0115-0.5770 (  1565 PWs)   bands (ev):

   -70.4179 -37.3848 -37.3837 -37.3832  -7.3615   0.3584   1.2828   2.0928
     7.4023   9.4738  12.8382  13.5303

[...]

          k = 0.2092 0.3564-0.0721 (  1550 PWs)   bands (ev):

   -70.4180 -37.3840 -37.3830 -37.3825  -7.7762   0.7178   2.1056   2.6823
     8.7694  10.0181  10.5702  11.8317

     occupation numbers 
     1.0000   1.0000   1.0000   1.0000   1.0000   1.0000   1.0000   1.0000
     0.0000   0.0000   0.0000   0.0000

          k = 0.1356 0.4300-0.0000 (  1542 PWs)   bands (ev):

   -70.4180 -37.3840 -37.3831 -37.3828  -7.6984   0.7558   2.0306   2.3535
     8.2067   9.5601  11.0878  12.8255

     occupation numbers 
     1.0000   1.0000   1.0000   1.0000   1.0000   1.0000   1.0000   1.0000
     0.0000   0.0000   0.0000   0.0000

          k = 0.7244-0.1587-0.5770 (  1553 PWs)   bands (ev):

   -70.4180 -37.3847 -37.3833 -37.3832  -7.4474   0.3626   1.8019   1.9868
     7.4474   9.1486  12.1149  13.7560

     occupation numbers 
     1.0000   1.0000   1.0000   1.0000   1.0000   1.0000   1.0000   1.0000
     0.0000   0.0000   0.0000   0.0000

          k = 0.6508-0.0851-0.5049 (  1554 PWs)   bands (ev):

   -70.4179 -37.3848 -37.3836 -37.3832  -7.3726   0.3839   1.4017   1.9253
     7.7209   9.6619  11.9537  12.9968

     occupation numbers 
     1.0000   1.0000   1.0000   1.0000   1.0000   1.0000   1.0000   1.0000
     0.0000   0.0000   0.0000   0.0000

          k = 0.5772-0.0115-0.4327 (  1555 PWs)   bands (ev):

   -70.4179 -37.3845 -37.3838 -37.3831  -7.3822   0.5796   0.9861   2.0847
     8.1876  10.2340  11.7078  12.1963

     occupation numbers 
     1.0000   1.0000   1.0000   1.0000   1.0000   1.0000   1.0000   1.0000
     0.0000   0.0000   0.0000   0.0000

          k = 0.5036 0.0621-0.3606 (  1556 PWs)   bands (ev):

   -70.4180 -37.3844 -37.3837 -37.3829  -7.4703   0.3885   1.3299   2.3314
     8.8043   9.8340  11.2345  12.1996

     occupation numbers 
     1.0000   1.0000   1.0000   1.0000   1.0000   1.0000   1.0000   1.0000
     0.0000   0.0000   0.0000   0.0000

          k = 0.4300 0.1356-0.2885 (  1551 PWs)   bands (ev):

   -70.4180 -37.3845 -37.3831 -37.3828  -7.5978   0.2162   1.9905   2.5432
     8.8937   9.6062  11.2575  11.5264

     occupation numbers 
     1.0000   1.0000   1.0000   1.0000   1.0000   1.0000   1.0000   1.0000
     0.0000   0.0000   0.0000   0.0000

          k = 0.2828 0.2828-0.0000 (  1550 PWs)   bands (ev):

   -70.4180 -37.3838 -37.3831 -37.3824  -7.8158   0.8416   1.9717   2.8636
     9.0148  10.0573  10.5795  11.7167

     occupation numbers 
     1.0000   1.0000   1.0000   1.0000   1.0000   1.0000   1.0000   1.0000
     0.0000   0.0000   0.0000   0.0000

          k = 0.7980-0.2323-0.5049 (  1558 PWs)   bands (ev):

   -70.4180 -37.3844 -37.3834 -37.3830  -7.5320   0.4455   1.6869   2.2502
     8.2599   9.8381  10.8763  12.7619

     occupation numbers 
     1.0000   1.0000   1.0000   1.0000   1.0000   1.0000   1.0000   1.0000
     0.0000   0.0000   0.0000   0.0000

          k = 0.7244-0.1587-0.4327 (  1555 PWs)   bands (ev):

   -70.4180 -37.3845 -37.3837 -37.3831  -7.4151   0.4862   1.3205   1.9778
     8.3938  10.2800  10.6217  12.7132

     occupation numbers 
     1.0000   1.0000   1.0000   1.0000   1.0000   1.0000   1.0000   1.0000
     0.0000   0.0000   0.0000   0.0000

          k = 0.6508-0.0851-0.3606 (  1548 PWs)   bands (ev):

   -70.4179 -37.3846 -37.3837 -37.3832  -7.3691   0.5435   1.1733   1.8272
     8.4493  10.3795  11.1354  11.9230

     occupation numbers 
     1.0000   1.0000   1.0000   1.0000   1.0000   1.0000   1.0000   1.0000
     0.0000   0.0000   0.0000   0.0000

          k = 0.2828 0.2828-1.0097 (  1541 PWs)   bands (ev):

   -70.4180 -37.3849 -37.3828 -37.3826  -7.6001  -0.1171   2.4239   2.6613
     8.4612   9.8807  11.0466  11.6353

     occupation numbers 
     1.0000   1.0000   1.0000   1.0000   1.0000   1.0000   1.0000   1.0000
     0.0000   0.0000   0.0000   0.0000

          k = 0.2092 0.3564-0.9376 (  1545 PWs)   bands (ev):

   -70.4180 -37.3847 -37.3831 -37.3827  -7.5388   0.0222   1.9703   2.5035
     9.0072   9.3888  11.4405  11.7199

     occupation numbers 
     1.0000   1.0000   1.0000   1.0000   1.0000   1.0000   1.0000   1.0000
     0.0000   0.0000   0.0000   0.0000

          k = 0.1356 0.4300-0.8655 (  1547 PWs)   bands (ev):

   -70.4180 -37.3845 -37.3835 -37.3830  -7.4584   0.3190   1.4511   2.2075
     8.4774  10.0517  11.3956  12.2748

     occupation numbers 
     1.0000   1.0000   1.0000   1.0000   1.0000   1.0000   1.0000   1.0000
     0.0000   0.0000   0.0000   0.0000

          k = 0.0621 0.5036-0.7934 (  1558 PWs)   bands (ev):

   -70.4180 -37.3846 -37.3837 -37.3832  -7.3873   0.4258   1.3575   1.9391
     7.7513   9.6924  12.2404  12.8379

     occupation numbers 
     1.0000   1.0000   1.0000   1.0000   1.0000   1.0000   1.0000   1.0000
     0.0000   0.0000   0.0000   0.0000

          k =-0.0115 0.5772-0.7212 (  1563 PWs)   bands (ev):

   -70.4179 -37.3849 -37.3835 -37.3833  -7.3550   0.2483   1.7157   1.8299
     7.1621   9.0103  13.1198  13.7706

     occupation numbers 
     1.0000   1.0000   1.0000   1.0000   1.0000   1.0000   1.0000   1.0000
     0.0000   0.0000   0.0000   0.0000

          k = 0.2828 0.2828-0.8655 (  1541 PWs)   bands (ev):

   -70.4180 -37.3846 -37.3833 -37.3826  -7.5300   0.1258   1.6945   2.5738
     8.8427   9.6778  11.6513  11.6794

     occupation numbers 
     1.0000   1.0000   1.0000   1.0000   1.0000   1.0000   1.0000   1.0000
     0.0000   0.0000   0.0000   0.0000

          k = 0.2092 0.3564-0.7934 (  1558 PWs)   bands (ev):

   -70.4180 -37.3844 -37.3836 -37.3828  -7.4924   0.3835   1.3388   2.3701
     8.8586   9.9176  11.2562  12.2162

     occupation numbers 
     1.0000   1.0000   1.0000   1.0000   1.0000   1.0000   1.0000   1.0000
     0.0000   0.0000   0.0000   0.0000

          k = 0.1356 0.4300-0.7212 (  1555 PWs)   bands (ev):

   -70.4180 -37.3844 -37.3837 -37.3831  -7.4381   0.5173   1.3052   1.9894
     8.4399  10.3260  10.8408  12.5735

     occupation numbers 
     1.0000   1.0000   1.0000   1.0000   1.0000   1.0000   1.0000   1.0000
     0.0000   0.0000   0.0000   0.0000

          k = 0.2828 0.2828-0.7212 (  1560 PWs)   bands (ev):

   -70.4180 -37.3843 -37.3838 -37.3827  -7.5054   0.4939   1.1256   2.5393
     8.6870  10.2201  11.4207  12.2234

     occupation numbers 
     1.0000   1.0000   1.0000   1.0000   1.0000   1.0000   1.0000   1.0000
     0.0000   0.0000   0.0000   0.0000

          k =-0.3536-0.3536 0.3606 (  1542 PWs)   bands (ev):

   -70.4180 -37.3849 -37.3827 -37.3825  -7.6226  -0.2151   2.6961   2.7342
     8.0867  10.4707  10.7687  11.4300

     occupation numbers 
     1.0000   1.0000   1.0000   1.0000   1.0000   1.0000   1.0000   1.0000
     0.0000   0.0000   0.0000   0.0000

          k =-0.4272-0.2800 0.4327 (  1540 PWs)   bands (ev):

   -70.4180 -37.3848 -37.3828 -37.3827  -7.6000  -0.1048   2.4394   2.6192
     8.4433  10.0097  10.8500  11.7866

     occupation numbers 
     1.0000   1.0000   1.0000   1.0000   1.0000   1.0000   1.0000   1.0000
     0.0000   0.0000   0.0000   0.0000

          k =-0.5007-0.2064 0.5049 (  1555 PWs)   bands (ev):

   -70.4180 -37.3846 -37.3832 -37.3829  -7.5383   0.1768   1.8651   2.4088
     8.4704   9.9014  11.4893  11.6956

     occupation numbers 
     1.0000   1.0000   1.0000   1.0000   1.0000   1.0000   1.0000   1.0000
     0.0000   0.0000   0.0000   0.0000

          k =-0.5743-0.1328 0.5770 (  1555 PWs)   bands (ev):

   -70.4180 -37.3845 -37.3835 -37.3831  -7.4567   0.3817   1.5316   2.1772
     7.7021   9.6053  12.0539  12.9288

     occupation numbers 
     1.0000   1.0000   1.0000   1.0000   1.0000   1.0000   1.0000   1.0000
     0.0000   0.0000   0.0000   0.0000

          k =-0.6479-0.0592 0.6491 (  1561 PWs)   bands (ev):

   -70.4179 -37.3849 -37.3834 -37.3832  -7.3859   0.2371   1.7523   2.0073
     7.0082   8.8317  13.4267  14.3407

     occupation numbers 
     1.0000   1.0000   1.0000   1.0000   1.0000   1.0000   1.0000   1.0000
     0.0000   0.0000   0.0000   0.0000

          k = 0.0144-0.7215 0.0000 (  1552 PWs)   bands (ev):

   -70.4179 -37.3850 -37.3833 -37.3833  -7.3576   0.1278   1.9445   1.9470
     6.7014   8.5395  13.9955  15.1895

     occupation numbers 
     1.0000   1.0000   1.0000   1.0000   1.0000   1.0000   1.0000   1.0000
     0.0000   0.0000   0.0000   0.0000

          k =-0.3536-0.3536 0.5049 (  1547 PWs)   bands (ev):

   -70.4180 -37.3847 -37.3829 -37.3825  -7.6294  -0.0283   2.3580   2.7276
     8.4923   9.9814  11.0145  11.6471

     occupation numbers 
     1.0000   1.0000   1.0000   1.0000   1.0000   1.0000   1.0000   1.0000
     0.0000   0.0000   0.0000   0.0000

          k =-0.4272-0.2800 0.5770 (  1551 PWs)   bands (ev):

   -70.4180 -37.3845 -37.3831 -37.3826  -7.6105   0.2247   1.9848   2.5585
     8.9145   9.6446  11.2524  11.6288

     occupation numbers 
     1.0000   1.0000   1.0000   1.0000   1.0000   1.0000   1.0000   1.0000
     0.0000   0.0000   0.0000   0.0000

          k =-0.5007-0.2064 0.6491 (  1550 PWs)   bands (ev):

   -70.4180 -37.3843 -37.3834 -37.3829  -7.5475   0.4646   1.7035   2.2260
     8.2967   9.8821  11.0283  12.6919

     occupation numbers 
     1.0000   1.0000   1.0000   1.0000   1.0000   1.0000   1.0000   1.0000
     0.0000   0.0000   0.0000   0.0000

          k =-0.5743-0.1328 0.7212 (  1552 PWs)   bands (ev):

   -70.4180 -37.3846 -37.3834 -37.3832  -7.4613   0.3977   1.7910   1.9667
     7.4831   9.1750  12.3946  13.7111

     occupation numbers 
     1.0000   1.0000   1.0000   1.0000   1.0000   1.0000   1.0000   1.0000
     0.0000   0.0000   0.0000   0.0000

          k = 0.0144-0.7215 0.1442 (  1556 PWs)   bands (ev):

   -70.4179 -37.3849 -37.3834 -37.3833  -7.3544   0.2459   1.7206   1.8282
     7.1608   9.0089  13.2698  13.5902

     occupation numbers 
     1.0000   1.0000   1.0000   1.0000   1.0000   1.0000   1.0000   1.0000
     0.0000   0.0000   0.0000   0.0000

          k =-0.0592-0.6479 0.2164 (  1551 PWs)   bands (ev):

   -70.4179 -37.3847 -37.3836 -37.3832  -7.3802   0.4164   1.3394   1.9640
     7.7342   9.6784  11.9721  13.0924

     occupation numbers 
     1.0000   1.0000   1.0000   1.0000   1.0000   1.0000   1.0000   1.0000
     0.0000   0.0000   0.0000   0.0000

          k =-0.1328-0.5743 0.2885 (  1556 PWs)   bands (ev):

   -70.4180 -37.3845 -37.3836 -37.3830  -7.4494   0.3335   1.3985   2.2348
     8.4667   9.9505  11.3251  12.3962

     occupation numbers 
     1.0000   1.0000   1.0000   1.0000   1.0000   1.0000   1.0000   1.0000
     0.0000   0.0000   0.0000   0.0000

          k =-0.2064-0.5007 0.3606 (  1540 PWs)   bands (ev):

   -70.4180 -37.3847 -37.3831 -37.3828  -7.5326   0.0373   1.9411   2.4977
     8.9720   9.3934  11.3799  11.8136

     occupation numbers 
     1.0000   1.0000   1.0000   1.0000   1.0000   1.0000   1.0000   1.0000
     0.0000   0.0000   0.0000   0.0000

          k =-0.3536-0.3536 0.6491 (  1553 PWs)   bands (ev):

   -70.4180 -37.3843 -37.3833 -37.3825  -7.6404   0.4219   1.6930   2.7171
     9.2876   9.6312  11.1133  11.6484

     occupation numbers 
     1.0000   1.0000   1.0000   1.0000   1.0000   1.0000   1.0000   1.0000
     0.0000   0.0000   0.0000   0.0000

          k =-0.4272-0.2800 0.7212 (  1550 PWs)   bands (ev):

   -70.4180 -37.3842 -37.3835 -37.3826  -7.6170   0.5540   1.5664   2.5399
     9.1598   9.8682  10.5494  12.2939

     occupation numbers 
     1.0000   1.0000   1.0000   1.0000   1.0000   1.0000   1.0000   1.0000
     0.0000   0.0000   0.0000   0.0000

          k = 0.0144-0.7215 0.2885 (  1562 PWs)   bands (ev):

   -70.4179 -37.3846 -37.3837 -37.3833  -7.3494   0.5510   1.2557   1.6601
     8.1388  10.2042  11.7659  11.7667

     occupation numbers 
     1.0000   1.0000   1.0000   1.0000   1.0000   1.0000   1.0000   1.0000
     0.0000   0.0000   0.0000   0.0000

          k =-0.0592-0.6479 0.3606 (  1562 PWs)   bands (ev):

   -70.4179 -37.3845 -37.3839 -37.3832  -7.3766   0.6048   1.0721   1.8794
     8.4675  10.4095  11.0753  12.0042

     occupation numbers 
     1.0000   1.0000   1.0000   1.0000   1.0000   1.0000   1.0000   1.0000
     0.0000   0.0000   0.0000   0.0000

     the Fermi energy is     4.6926 ev

!    total energy              =    -149.33399686 Ry
     Harris-Foulkes estimate   =    -149.33399685 Ry
     estimated scf accuracy    <          7.3E-10 Ry

     The total energy is the sum of the following terms:

     one-electron contribution =    -114.52091537 Ry
     hartree contribution      =      57.63784595 Ry
     xc contribution           =     -25.06114136 Ry
     ewald contribution        =     -67.38978608 Ry
     smearing contrib. (-TS)   =      -0.00000000 Ry

     convergence has been achieved in  11 iterations

     Forces acting on atoms (cartesian axes, Ry/au):

     atom    1 type  1   force =     0.00000000    0.00000000    0.00966749
     atom    2 type  2   force =     0.00000000    0.00000000   -0.00966749
     The non-local contrib.  to forces
     atom    1 type  1   force =     0.00000000    0.00000000    0.07001447
     atom    2 type  2   force =     0.00000000    0.00000000   -0.00880391
     The ionic contribution  to forces
     atom    1 type  1   force =     0.00000000    0.00000000    0.42354668
     atom    2 type  2   force =    -0.00000000   -0.00000000   -0.42354668
     The local contribution  to forces
     atom    1 type  1   force =    -0.00000000   -0.00000000   -0.48388412
     atom    2 type  2   force =     0.00000000    0.00000000    0.42181370
     The core correction contribution to forces
     atom    1 type  1   force =     0.00000000    0.00000000    0.00000000
     atom    2 type  2   force =    -0.00000000   -0.00000000    0.00086220
     The Hubbard contrib.    to forces
     atom    1 type  1   force =     0.00000000    0.00000000    0.00000000
     atom    2 type  2   force =     0.00000000    0.00000000    0.00000000
     The SCF correction term to forces
     atom    1 type  1   force =    -0.00000000   -0.00000000   -0.00001306
     atom    2 type  2   force =     0.00000000    0.00000000    0.00000367

     Total force =     0.013672     Total SCF correction =     0.000014


     Computing stress (Cartesian axis) and pressure

          total   stress  (Ry/bohr**3)                   (kbar)     P=        1.13
   0.00000803  -0.00014211   0.00000000            1.18      -20.91        0.00
  -0.00014211   0.00000803   0.00000000          -20.91        1.18        0.00
   0.00000000   0.00000000   0.00000700            0.00        0.00        1.03

     kinetic stress (kbar)   7643.34    -13.46     -0.00
                              -13.46   7643.34     -0.00
                               -0.00     -0.00   7642.21

     local   stress (kbar)  -6900.51    750.23     -0.00
                              750.23  -6900.51     -0.00
                               -0.00     -0.00  -6892.28

     nonloc. stress (kbar)   4246.81     -6.97     -0.00
                               -6.97   4246.81     -0.00
                               -0.00     -0.00   4246.86

     hartree stress (kbar)   9288.10   -284.10      0.00
                             -284.10   9288.10      0.00
                                0.00      0.00   9282.66

     exc-cor stress (kbar)  -1529.79     -0.33      0.00
                               -0.33  -1529.79      0.00
                                0.00      0.00  -1529.79

     corecor stress (kbar)  -1889.93      0.36     -0.00
                                0.36  -1889.93     -0.00
                               -0.00     -0.00  -1889.92

     ewald   stress (kbar) -10856.83   -466.64     -0.00
                             -466.64 -10856.83     -0.00
                               -0.00     -0.00 -10858.71

     hubbard stress (kbar)      0.00      0.00      0.00
                                0.00      0.00      0.00
                                0.00      0.00      0.00

     london  stress (kbar)      0.00      0.00      0.00
                                0.00      0.00      0.00
                                0.00      0.00      0.00

     DFT-D3  stress (kbar)      0.00      0.00      0.00
                                0.00      0.00      0.00
                                0.00      0.00      0.00

     XDM     stress (kbar)      0.00      0.00      0.00
                                0.00      0.00      0.00
                                0.00      0.00      0.00

     dft-nl  stress (kbar)      0.00      0.00      0.00
                                0.00      0.00      0.00
                                0.00      0.00      0.00

     TS-vdW  stress (kbar)      0.00      0.00      0.00
                                0.00      0.00      0.00
                                0.00      0.00      0.00



     Writing output data file znse.in_vnscf_shear_2/qe.save/
 
     init_run     :      0.57s CPU      0.61s WALL (       1 calls)
     electrons    :     18.76s CPU     20.18s WALL (       1 calls)
     forces       :      0.14s CPU      0.14s WALL (       1 calls)
     stress       :      0.34s CPU      0.35s WALL (       1 calls)

     Called by init_run:
     wfcinit      :      0.45s CPU      0.47s WALL (       1 calls)
     wfcinit:atom :      0.01s CPU      0.01s WALL (     171 calls)
     wfcinit:wfcr :      0.42s CPU      0.44s WALL (     171 calls)
     potinit      :      0.02s CPU      0.03s WALL (       1 calls)
     hinit0       :      0.08s CPU      0.08s WALL (       1 calls)

     Called by electrons:
     c_bands      :     16.68s CPU     17.43s WALL (      11 calls)
     sum_band     :      1.85s CPU      1.97s WALL (      11 calls)
     v_of_rho     :      0.04s CPU      0.05s WALL (      12 calls)
     v_h          :      0.00s CPU      0.00s WALL (      12 calls)
     v_xc         :      0.05s CPU      0.05s WALL (      14 calls)
     newd         :      0.14s CPU      0.14s WALL (      12 calls)
     mix_rho      :      0.06s CPU      0.06s WALL (      11 calls)

     Called by c_bands:
     init_us_2    :      0.24s CPU      0.25s WALL (    4275 calls)
     cegterg      :     15.72s CPU     16.45s WALL (    1881 calls)

     Called by sum_band:
     sum_band:bec :      0.02s CPU      0.02s WALL (    1881 calls)
     addusdens    :      0.15s CPU      0.15s WALL (      11 calls)

     Called by *egterg:
     h_psi        :      7.19s CPU      7.61s WALL (    6593 calls)
     s_psi        :      0.13s CPU      0.15s WALL (    6593 calls)
     g_psi        :      0.03s CPU      0.03s WALL (    4541 calls)
     cdiaghg      :      6.76s CPU      6.98s WALL (    6422 calls)
     cegterg:over :      1.10s CPU      1.18s WALL (    4541 calls)
     cegterg:upda :      0.35s CPU      0.36s WALL (    4541 calls)
     cegterg:last :      0.16s CPU      0.16s WALL (    1881 calls)
     cdiaghg:chol :      0.46s CPU      0.49s WALL (    6422 calls)
     cdiaghg:inve :      0.25s CPU      0.27s WALL (    6422 calls)
     cdiaghg:para :      0.58s CPU      0.61s WALL (   12844 calls)

     Called by h_psi:
     h_psi:calbec :      0.39s CPU      0.42s WALL (    6593 calls)
     vloc_psi     :      6.59s CPU      6.96s WALL (    6593 calls)
     add_vuspsi   :      0.16s CPU      0.17s WALL (    6593 calls)

     General routines
     calbec       :      0.57s CPU      0.61s WALL (    9329 calls)
     fft          :      0.04s CPU      0.04s WALL (     179 calls)
     ffts         :      0.03s CPU      0.04s WALL (     351 calls)
     fftw         :      7.27s CPU      7.70s WALL (  135456 calls)
     interpolate  :      0.00s CPU      0.00s WALL (      12 calls)
 
     Parallel routines
     fft_scatt_xy :      0.85s CPU      0.90s WALL (  135986 calls)
     fft_scatt_yz :      2.88s CPU      3.07s WALL (  135986 calls)
 
     PWSCF        :     20.09s CPU     29.97s WALL

 
   This run was terminated on:  16:24:28  25Jun2021            

=------------------------------------------------------------------------------=
   JOB DONE.
=------------------------------------------------------------------------------=
