
     Program PWSCF v.6.5 starts on 25Jun2021 at 16:18:22 

     This program is part of the open-source Quantum ESPRESSO suite
     for quantum simulation of materials; please cite
         "P. Giannozzi et al., J. Phys.:Condens. Matter 21 395502 (2009);
         "P. Giannozzi et al., J. Phys.:Condens. Matter 29 465901 (2017);
          URL http://www.quantum-espresso.org", 
     in publications or presentations arising from this work. More details at
     http://www.quantum-espresso.org/quote

     Parallel version (MPI), running on    12 processors

     MPI processes distributed on     1 nodes
     R & G space division:  proc/nbgrp/npool/nimage =      12
     Reading input from dimer.in_vnscf_coords_5/qe.in
Warning: card &IONS ignored
Warning: card   ION_DYNAMICS='BFGS', ignored
Warning: card / ignored
Warning: card &CELL ignored
Warning: card  CELL_DYNAMICS = 'BFGS' ignored
Warning: card  CELL_DOFREE = 'ALL' ignored
Warning: card  CELL_FACTOR = 1.0 ignored
Warning: card / ignored
     Message from routine read_cards :
     DEPRECATED: no units specified in CELL_PARAMETERS card

     Current dimensions of program PWSCF are:
     Max number of different atomic species (ntypx) = 10
     Max number of k-points (npk) =  40000
     Max angular momentum in pseudopotentials (lmaxx) =  3
               file mg.pbesol.UPF: wavefunction(s)  3P renormalized

     Subspace diagonalization in iterative solution of the eigenvalue problem:
     one sub-group per band group will be used
     scalapack distributed-memory algorithm (size of sub-group:  3*  3 procs)

     Message from routine setup:
     using ibrav=0 with symmetry is DISCOURAGED, use correct ibrav instead
 
     Parallelization info
     --------------------
     sticks:   dense  smooth     PW     G-vecs:    dense   smooth      PW
     Min         325     233     64                21812    13325    1942
     Max         327     234     65                21815    13330    1947
     Sum        3909    2801    777               261761   159925   23349
 


     bravais-lattice index     =            0
     lattice parameter (alat)  =      14.0000  a.u.
     unit-cell volume          =    3920.0000 (a.u.)^3
     number of atoms/cell      =            2
     number of atomic types    =            2
     number of electrons       =        16.00
     number of Kohn-Sham states=           12
     kinetic-energy cutoff     =      45.0000  Ry
     charge density cutoff     =     250.0000  Ry
     convergence threshold     =      1.0E-09
     mixing beta               =       0.3000
     number of iterations used =            8  local-TF  mixing
     Exchange-correlation= SLA  PW   PSX  PSC
                           (   1   4  10   8   0   0   0)
     A smooth kinetic-energy cutoff is imposed at      44.5000 Ry
     height of the smooth step-function =             800.0000 Ry
     width of the smooth step-function  =               1.0000 Ry


     celldm(1)=  14.000000  celldm(2)=   0.000000  celldm(3)=   0.000000
     celldm(4)=   0.000000  celldm(5)=   0.000000  celldm(6)=   0.000000

     crystal axes: (cart. coord. in units of alat)
               a(1) = (   1.000000   0.000000   0.000000 )  
               a(2) = (   0.000000   1.000000   0.000000 )  
               a(3) = (   0.000000   0.000000   1.428571 )  

     reciprocal axes: (cart. coord. in units 2 pi/alat)
               b(1) = (  1.000000  0.000000  0.000000 )  
               b(2) = (  0.000000  1.000000  0.000000 )  
               b(3) = (  0.000000  0.000000  0.700000 )  


     PseudoPot. # 1 for Mg read from file:
     /home/kfg/codes/ThreeBodyTB.jl/src/../pseudo/gbrv_pbesol/mg.pbesol.UPF
     MD5 check sum: cbba17e5274afd115179030b10be074e
     Pseudo is Ultrasoft, Zval = 10.0
     Generated by new atomic code, or converted to UPF format
     Using radial grid of  821 points,  7 beta functions with: 
                l(1) =   0
                l(2) =   0
                l(3) =   0
                l(4) =   1
                l(5) =   1
                l(6) =   2
                l(7) =   2
     Q(r) pseudized with  8 coefficients,  rinner =    1.200   1.200   1.200
                                                       1.200   1.200

     PseudoPot. # 2 for S  read from file:
     /home/kfg/codes/ThreeBodyTB.jl/src/../pseudo/gbrv_pbesol/s.pbesol.UPF
     MD5 check sum: 0ccfa86ec6eb59065d10aaae963ef2a7
     Pseudo is Ultrasoft + core correction, Zval =  6.0
     Generated by new atomic code, or converted to UPF format
     Using radial grid of  907 points,  6 beta functions with: 
                l(1) =   0
                l(2) =   0
                l(3) =   1
                l(4) =   1
                l(5) =   2
                l(6) =   2
     Q(r) pseudized with  8 coefficients,  rinner =    1.300   1.300   1.300
                                                       1.300   1.300

     atomic species   valence    mass     pseudopotential
        Mg            10.00    24.31000     Mg( 1.00)
        S              6.00    32.06000     S ( 1.00)

      8 Sym. Ops. (no inversion) found


                                    s                        frac. trans.

      isym =  1     identity                                     

 cryst.   s( 1) = (     1          0          0      )
                  (     0          1          0      )
                  (     0          0          1      )

 cart.    s( 1) = (  1.0000000  0.0000000  0.0000000 )
                  (  0.0000000  1.0000000  0.0000000 )
                  (  0.0000000  0.0000000  1.0000000 )


      isym =  2     180 deg rotation - cart. axis [0,0,1]        

 cryst.   s( 2) = (    -1          0          0      )
                  (     0         -1          0      )
                  (     0          0          1      )

 cart.    s( 2) = ( -1.0000000  0.0000000  0.0000000 )
                  (  0.0000000 -1.0000000  0.0000000 )
                  (  0.0000000  0.0000000  1.0000000 )


      isym =  3      90 deg rotation - cart. axis [0,0,-1]       

 cryst.   s( 3) = (     0         -1          0      )
                  (     1          0          0      )
                  (     0          0          1      )

 cart.    s( 3) = (  0.0000000  1.0000000  0.0000000 )
                  ( -1.0000000  0.0000000  0.0000000 )
                  (  0.0000000  0.0000000  1.0000000 )


      isym =  4      90 deg rotation - cart. axis [0,0,1]        

 cryst.   s( 4) = (     0          1          0      )
                  (    -1          0          0      )
                  (     0          0          1      )

 cart.    s( 4) = (  0.0000000 -1.0000000  0.0000000 )
                  (  1.0000000  0.0000000  0.0000000 )
                  (  0.0000000  0.0000000  1.0000000 )


      isym =  5     inv. 180 deg rotation - cart. axis [0,1,0]   

 cryst.   s( 5) = (     1          0          0      )
                  (     0         -1          0      )
                  (     0          0          1      )

 cart.    s( 5) = (  1.0000000  0.0000000  0.0000000 )
                  (  0.0000000 -1.0000000  0.0000000 )
                  (  0.0000000  0.0000000  1.0000000 )


      isym =  6     inv. 180 deg rotation - cart. axis [1,0,0]   

 cryst.   s( 6) = (    -1          0          0      )
                  (     0          1          0      )
                  (     0          0          1      )

 cart.    s( 6) = ( -1.0000000  0.0000000  0.0000000 )
                  (  0.0000000  1.0000000  0.0000000 )
                  (  0.0000000  0.0000000  1.0000000 )


      isym =  7     inv. 180 deg rotation - cart. axis [1,1,0]   

 cryst.   s( 7) = (     0         -1          0      )
                  (    -1          0          0      )
                  (     0          0          1      )

 cart.    s( 7) = (  0.0000000 -1.0000000  0.0000000 )
                  ( -1.0000000  0.0000000  0.0000000 )
                  (  0.0000000  0.0000000  1.0000000 )


      isym =  8     inv. 180 deg rotation - cart. axis [1,-1,0]  

 cryst.   s( 8) = (     0          1          0      )
                  (     1          0          0      )
                  (     0          0          1      )

 cart.    s( 8) = (  0.0000000  1.0000000  0.0000000 )
                  (  1.0000000  0.0000000  0.0000000 )
                  (  0.0000000  0.0000000  1.0000000 )


   Cartesian axes

     site n.     atom                  positions (alat units)
         1           Mg  tau(   1) = (   0.0000000   0.0000000  -0.1444104  )
         2           S   tau(   2) = (   0.0000000   0.0000000   0.1444104  )

   Crystallographic axes

     site n.     atom                  positions (cryst. coord.)
         1           Mg  tau(   1) = (  0.0000000  0.0000000 -0.1010873  )
         2           S   tau(   2) = (  0.0000000  0.0000000  0.1010873  )

     number of k points=    18  Gaussian smearing, width (Ry)=  0.0100
                       cart. coord. in units 2pi/alat
        k(    1) = (   0.0000000   0.0000000   0.0000000), wk =   0.0312500
        k(    2) = (   0.0000000   0.0000000   0.1750000), wk =   0.0625000
        k(    3) = (   0.0000000   0.0000000  -0.3500000), wk =   0.0312500
        k(    4) = (   0.0000000   0.2500000   0.0000000), wk =   0.1250000
        k(    5) = (   0.0000000   0.2500000   0.1750000), wk =   0.2500000
        k(    6) = (   0.0000000   0.2500000  -0.3500000), wk =   0.1250000
        k(    7) = (   0.0000000  -0.5000000   0.0000000), wk =   0.0625000
        k(    8) = (   0.0000000  -0.5000000   0.1750000), wk =   0.1250000
        k(    9) = (   0.0000000  -0.5000000  -0.3500000), wk =   0.0625000
        k(   10) = (   0.2500000   0.2500000   0.0000000), wk =   0.1250000
        k(   11) = (   0.2500000   0.2500000   0.1750000), wk =   0.2500000
        k(   12) = (   0.2500000   0.2500000  -0.3500000), wk =   0.1250000
        k(   13) = (   0.2500000  -0.5000000   0.0000000), wk =   0.1250000
        k(   14) = (   0.2500000  -0.5000000   0.1750000), wk =   0.2500000
        k(   15) = (   0.2500000  -0.5000000  -0.3500000), wk =   0.1250000
        k(   16) = (  -0.5000000  -0.5000000   0.0000000), wk =   0.0312500
        k(   17) = (  -0.5000000  -0.5000000   0.1750000), wk =   0.0625000
        k(   18) = (  -0.5000000  -0.5000000  -0.3500000), wk =   0.0312500

                       cryst. coord.
        k(    1) = (   0.0000000   0.0000000   0.0000000), wk =   0.0312500
        k(    2) = (   0.0000000   0.0000000   0.2500000), wk =   0.0625000
        k(    3) = (   0.0000000   0.0000000  -0.5000000), wk =   0.0312500
        k(    4) = (   0.0000000   0.2500000   0.0000000), wk =   0.1250000
        k(    5) = (   0.0000000   0.2500000   0.2500000), wk =   0.2500000
        k(    6) = (   0.0000000   0.2500000  -0.5000000), wk =   0.1250000
        k(    7) = (   0.0000000  -0.5000000   0.0000000), wk =   0.0625000
        k(    8) = (   0.0000000  -0.5000000   0.2500000), wk =   0.1250000
        k(    9) = (   0.0000000  -0.5000000  -0.5000000), wk =   0.0625000
        k(   10) = (   0.2500000   0.2500000   0.0000000), wk =   0.1250000
        k(   11) = (   0.2500000   0.2500000   0.2500000), wk =   0.2500000
        k(   12) = (   0.2500000   0.2500000  -0.5000000), wk =   0.1250000
        k(   13) = (   0.2500000  -0.5000000   0.0000000), wk =   0.1250000
        k(   14) = (   0.2500000  -0.5000000   0.2500000), wk =   0.2500000
        k(   15) = (   0.2500000  -0.5000000  -0.5000000), wk =   0.1250000
        k(   16) = (  -0.5000000  -0.5000000   0.0000000), wk =   0.0312500
        k(   17) = (  -0.5000000  -0.5000000   0.2500000), wk =   0.0625000
        k(   18) = (  -0.5000000  -0.5000000  -0.5000000), wk =   0.0312500

     Dense  grid:   261761 G-vectors     FFT dimensions: (  72,  72, 108)

     Smooth grid:   159925 G-vectors     FFT dimensions: (  60,  60,  90)

     Dynamical RAM for                 wfc:       0.30 MB

     Dynamical RAM for     wfc (w. buffer):       5.79 MB

     Dynamical RAM for           str. fact:       0.67 MB

     Dynamical RAM for           local pot:       0.00 MB

     Dynamical RAM for          nlocal pot:       0.94 MB

     Dynamical RAM for                qrad:       7.53 MB

     Dynamical RAM for          rho,v,vnew:       2.07 MB

     Dynamical RAM for               rhoin:       0.69 MB

     Dynamical RAM for            rho*nmix:       5.33 MB

     Dynamical RAM for           G-vectors:       1.35 MB

     Dynamical RAM for          h,s,v(r/c):       0.01 MB

     Dynamical RAM for          <psi|beta>:       0.01 MB

     Dynamical RAM for                 psi:       1.22 MB

     Dynamical RAM for                hpsi:       1.22 MB

     Dynamical RAM for                spsi:       1.22 MB

     Dynamical RAM for      wfcinit/wfcrot:       0.61 MB

     Dynamical RAM for           addusdens:      68.57 MB

     Dynamical RAM for          addusforce:      69.75 MB

     Dynamical RAM for         addusstress:      73.23 MB

     Estimated static dynamical RAM per process >      27.14 MB

     Estimated max dynamical RAM per process >     100.37 MB

     Estimated total dynamical RAM >       1.18 GB

     Initial potential from superposition of free atoms

     starting charge   15.69974, renormalised to   16.00000

     negative rho (up, down):  3.293E-05 0.000E+00
     Starting wfcs are   12 randomized atomic wfcs

     total cpu time spent up to now is        1.0 secs

     Self-consistent Calculation

     iteration #  1     ecut=    45.00 Ry     beta= 0.30
     Davidson diagonalization with overlap
     ethr =  1.00E-02,  avg # of iterations =  5.0

     negative rho (up, down):  6.779E-05 0.000E+00

     total cpu time spent up to now is        4.3 secs

     total energy              =    -149.09269619 Ry
     Harris-Foulkes estimate   =    -149.17861055 Ry
     estimated scf accuracy    <       0.71022672 Ry

     iteration #  2     ecut=    45.00 Ry     beta= 0.30
     Davidson diagonalization with overlap
     ethr =  4.44E-03,  avg # of iterations =  1.0

     negative rho (up, down):  1.073E-02 0.000E+00

     total cpu time spent up to now is        6.0 secs

     total energy              =    -148.86152015 Ry
     Harris-Foulkes estimate   =    -149.10350753 Ry
     estimated scf accuracy    <       0.49420994 Ry

     iteration #  3     ecut=    45.00 Ry     beta= 0.30
     Davidson diagonalization with overlap
     ethr =  3.09E-03,  avg # of iterations =  2.0

     negative rho (up, down):  8.195E-03 0.000E+00

     total cpu time spent up to now is        8.0 secs

     total energy              =    -148.94134056 Ry
     Harris-Foulkes estimate   =    -148.96631985 Ry
     estimated scf accuracy    <       0.10510173 Ry

     iteration #  4     ecut=    45.00 Ry     beta= 0.30
     Davidson diagonalization with overlap
     ethr =  6.57E-04,  avg # of iterations =  2.1

     negative rho (up, down):  2.244E-02 0.000E+00

     total cpu time spent up to now is        9.8 secs

     total energy              =    -148.93202016 Ry
     Harris-Foulkes estimate   =    -148.97132635 Ry
     estimated scf accuracy    <       0.08081116 Ry

     iteration #  5     ecut=    45.00 Ry     beta= 0.30
     Davidson diagonalization with overlap
     ethr =  5.05E-04,  avg # of iterations =  2.7

     negative rho (up, down):  1.764E-02 0.000E+00

     total cpu time spent up to now is       11.9 secs

     total energy              =    -148.94523260 Ry
     Harris-Foulkes estimate   =    -148.94599762 Ry
     estimated scf accuracy    <       0.00792606 Ry

     iteration #  6     ecut=    45.00 Ry     beta= 0.30
     Davidson diagonalization with overlap
     ethr =  4.95E-05,  avg # of iterations =  5.9

     negative rho (up, down):  5.631E-03 0.000E+00

     total cpu time spent up to now is       14.7 secs

     total energy              =    -148.94613953 Ry
     Harris-Foulkes estimate   =    -148.94587747 Ry
     estimated scf accuracy    <       0.00189326 Ry

     iteration #  7     ecut=    45.00 Ry     beta= 0.30
     Davidson diagonalization with overlap
     ethr =  1.18E-05,  avg # of iterations =  3.1

     negative rho (up, down):  2.184E-03 0.000E+00

     total cpu time spent up to now is       17.9 secs

     total energy              =    -148.94577725 Ry
     Harris-Foulkes estimate   =    -148.94650218 Ry
     estimated scf accuracy    <       0.00162138 Ry

     iteration #  8     ecut=    45.00 Ry     beta= 0.30
     Davidson diagonalization with overlap
     ethr =  1.01E-05,  avg # of iterations =  2.3

     negative rho (up, down):  1.004E-03 0.000E+00

     total cpu time spent up to now is       20.2 secs

     total energy              =    -148.94627795 Ry
     Harris-Foulkes estimate   =    -148.94646089 Ry
     estimated scf accuracy    <       0.00125673 Ry

     iteration #  9     ecut=    45.00 Ry     beta= 0.30
     Davidson diagonalization with overlap
     ethr =  7.85E-06,  avg # of iterations =  1.3

     negative rho (up, down):  1.133E-05 0.000E+00

     total cpu time spent up to now is       22.7 secs

     total energy              =    -148.94624876 Ry
     Harris-Foulkes estimate   =    -148.94631359 Ry
     estimated scf accuracy    <       0.00038664 Ry

     iteration # 10     ecut=    45.00 Ry     beta= 0.30
     Davidson diagonalization with overlap
     ethr =  2.42E-06,  avg # of iterations =  7.8

     negative rho (up, down):  6.289E-06 0.000E+00

     total cpu time spent up to now is       26.0 secs

     total energy              =    -148.94627845 Ry
     Harris-Foulkes estimate   =    -148.94627381 Ry
     estimated scf accuracy    <       0.00004060 Ry

     iteration # 11     ecut=    45.00 Ry     beta= 0.30
     Davidson diagonalization with overlap
     ethr =  2.54E-07,  avg # of iterations =  2.1

     negative rho (up, down):  2.919E-05 0.000E+00

     total cpu time spent up to now is       28.1 secs

     total energy              =    -148.94627211 Ry
     Harris-Foulkes estimate   =    -148.94628023 Ry
     estimated scf accuracy    <       0.00004064 Ry

     iteration # 12     ecut=    45.00 Ry     beta= 0.30
     Davidson diagonalization with overlap
     ethr =  2.54E-07,  avg # of iterations =  4.8

     negative rho (up, down):  5.030E-05 0.000E+00

     total cpu time spent up to now is       30.3 secs

     total energy              =    -148.94627678 Ry
     Harris-Foulkes estimate   =    -148.94627670 Ry
     estimated scf accuracy    <       0.00000053 Ry

     iteration # 13     ecut=    45.00 Ry     beta= 0.30
     Davidson diagonalization with overlap
     ethr =  3.33E-09,  avg # of iterations =  3.0

     negative rho (up, down):  4.985E-05 0.000E+00

     total cpu time spent up to now is       32.9 secs

     total energy              =    -148.94627643 Ry
     Harris-Foulkes estimate   =    -148.94627707 Ry
     estimated scf accuracy    <       0.00000044 Ry

     iteration # 14     ecut=    45.00 Ry     beta= 0.30
     Davidson diagonalization with overlap
     ethr =  2.75E-09,  avg # of iterations =  1.9

     negative rho (up, down):  5.142E-05 0.000E+00

     total cpu time spent up to now is       35.3 secs

     total energy              =    -148.94627652 Ry
     Harris-Foulkes estimate   =    -148.94627648 Ry
     estimated scf accuracy    <       0.00000004 Ry

     iteration # 15     ecut=    45.00 Ry     beta= 0.30
     Davidson diagonalization with overlap
     ethr =  2.53E-10,  avg # of iterations =  2.0

     negative rho (up, down):  5.262E-05 0.000E+00

     total cpu time spent up to now is       41.4 secs

     total energy              =    -148.94627653 Ry
     Harris-Foulkes estimate   =    -148.94627653 Ry
     estimated scf accuracy    <       0.00000002 Ry

     iteration # 16     ecut=    45.00 Ry     beta= 0.30
     Davidson diagonalization with overlap
     ethr =  1.12E-10,  avg # of iterations =  1.1

     negative rho (up, down):  5.556E-05 0.000E+00

     total cpu time spent up to now is       43.9 secs

     total energy              =    -148.94627653 Ry
     Harris-Foulkes estimate   =    -148.94627653 Ry
     estimated scf accuracy    <       0.00000001 Ry

     iteration # 17     ecut=    45.00 Ry     beta= 0.30
     Davidson diagonalization with overlap
     ethr =  6.36E-11,  avg # of iterations =  3.0

     negative rho (up, down):  5.393E-05 0.000E+00

     total cpu time spent up to now is       47.2 secs

     total energy              =    -148.94627656 Ry
     Harris-Foulkes estimate   =    -148.94627653 Ry
     estimated scf accuracy    <          2.4E-09 Ry

     iteration # 18     ecut=    45.00 Ry     beta= 0.30
     Davidson diagonalization with overlap
     ethr =  1.51E-11,  avg # of iterations =  2.8

     negative rho (up, down):  5.518E-05 0.000E+00

     total cpu time spent up to now is       48.5 secs

     End of self-consistent calculation

          k = 0.0000 0.0000 0.0000 ( 19923 PWs)   bands (ev):

   -80.3649 -47.3194 -47.3150 -47.3150 -14.1561  -5.8158  -4.0753  -4.0753
    -3.5698  -0.3791  -0.3791   0.2439

     occupation numbers 
     1.0000   1.0000   1.0000   1.0000   1.0000   1.0000   0.9981   0.9981
     0.0089   0.0000   0.0000   0.0000

          k = 0.0000 0.0000 0.1750 ( 19971 PWs)   bands (ev):

   -80.3649 -47.3194 -47.3150 -47.3150 -14.1561  -5.8167  -4.0753  -4.0753
    -3.5638  -0.3821  -0.3821   0.1875

     occupation numbers 
     1.0000   1.0000   1.0000   1.0000   1.0000   1.0000   0.9980   0.9980
     0.0075   0.0000   0.0000   0.0000

          k = 0.0000 0.0000-0.3500 ( 19978 PWs)   bands (ev):

   -80.3649 -47.3194 -47.3150 -47.3150 -14.1561  -5.8177  -4.0752  -4.0752
    -3.5577  -0.3852  -0.3851   0.1170

     occupation numbers 
     1.0000   1.0000   1.0000   1.0000   1.0000   1.0000   0.9980   0.9980
     0.0063   0.0000   0.0000   0.0000

          k = 0.0000 0.2500 0.0000 ( 19968 PWs)   bands (ev):

   -80.3649 -47.3194 -47.3150 -47.3150 -14.1560  -5.8124  -4.0903  -4.0740
    -3.5490  -0.7068  -0.3508   0.5595

     occupation numbers 
     1.0000   1.0000   1.0000   1.0000   1.0000   1.0000   0.9988   0.9980
     0.0049   0.0000   0.0000   0.0000

          k = 0.0000 0.2500 0.1750 ( 19980 PWs)   bands (ev):

   -80.3649 -47.3194 -47.3150 -47.3150 -14.1560  -5.8133  -4.0902  -4.0740
    -3.5433  -0.7096  -0.3537   0.3766

     occupation numbers 
     1.0000   1.0000   1.0000   1.0000   1.0000   1.0000   0.9988   0.9980
     0.0041   0.0000   0.0000   0.0000

          k = 0.0000 0.2500-0.3500 ( 19962 PWs)   bands (ev):

   -80.3649 -47.3194 -47.3150 -47.3150 -14.1560  -5.8142  -4.0901  -4.0739
    -3.5375  -0.7123  -0.3566   0.2723

     occupation numbers 
     1.0000   1.0000   1.0000   1.0000   1.0000   1.0000   0.9988   0.9980
     0.0034   0.0000   0.0000   0.0000

          k = 0.0000-0.5000 0.0000 ( 20022 PWs)   bands (ev):

   -80.3649 -47.3194 -47.3150 -47.3150 -14.1559  -5.8090  -4.1048  -4.0728
    -3.5278  -0.9160  -0.3206   0.8270

     occupation numbers 
     1.0000   1.0000   1.0000   1.0000   1.0000   1.0000   0.9993   0.9979
     0.0025   0.0000   0.0000   0.0000

          k = 0.0000-0.5000 0.1750 ( 19978 PWs)   bands (ev):

   -80.3649 -47.3194 -47.3150 -47.3150 -14.1559  -5.8098  -4.1046  -4.0727
    -3.5224  -0.9197  -0.3234   0.6369

     occupation numbers 
     1.0000   1.0000   1.0000   1.0000   1.0000   1.0000   0.9993   0.9979
     0.0021   0.0000   0.0000   0.0000

          k = 0.0000-0.5000-0.3500 ( 19976 PWs)   bands (ev):

   -80.3649 -47.3194 -47.3150 -47.3150 -14.1559  -5.8106  -4.1045  -4.0726
    -3.5169  -0.9234  -0.3262   0.5256

     occupation numbers 
     1.0000   1.0000   1.0000   1.0000   1.0000   1.0000   0.9993   0.9979
     0.0018   0.0000   0.0000   0.0000

          k = 0.2500 0.2500 0.0000 ( 19983 PWs)   bands (ev):

   -80.3649 -47.3194 -47.3150 -47.3150 -14.1559  -5.8091  -4.0892  -4.0880
    -3.5293  -0.6895  -0.6141   0.7447

     occupation numbers 
     1.0000   1.0000   1.0000   1.0000   1.0000   1.0000   0.9988   0.9987
     0.0026   0.0000   0.0000   0.0000

          k = 0.2500 0.2500 0.1750 ( 19985 PWs)   bands (ev):

   -80.3649 -47.3194 -47.3150 -47.3150 -14.1559  -5.8099  -4.0891  -4.0879
    -3.5238  -0.6922  -0.6176   0.5347

     occupation numbers 
     1.0000   1.0000   1.0000   1.0000   1.0000   1.0000   0.9988   0.9987
     0.0022   0.0000   0.0000   0.0000

          k = 0.2500 0.2500-0.3500 ( 19980 PWs)   bands (ev):

   -80.3649 -47.3194 -47.3150 -47.3150 -14.1559  -5.8108  -4.0890  -4.0878
    -3.5184  -0.6950  -0.6211   0.4235

     occupation numbers 
     1.0000   1.0000   1.0000   1.0000   1.0000   1.0000   0.9988   0.9987
     0.0018   0.0000   0.0000   0.0000

          k = 0.2500-0.5000 0.0000 ( 20020 PWs)   bands (ev):

   -80.3649 -47.3194 -47.3150 -47.3150 -14.1558  -5.8057  -4.1028  -4.0870
    -3.5092  -0.8568  -0.5933   0.9570

     occupation numbers 
     1.0000   1.0000   1.0000   1.0000   1.0000   1.0000   0.9992   0.9987
     0.0014   0.0000   0.0000   0.0000

          k = 0.2500-0.5000 0.1750 ( 19978 PWs)   bands (ev):

   -80.3649 -47.3194 -47.3150 -47.3150 -14.1558  -5.8066  -4.1026  -4.0869
    -3.5040  -0.8606  -0.5968   0.7804

     occupation numbers 
     1.0000   1.0000   1.0000   1.0000   1.0000   1.0000   0.9992   0.9987
     0.0011   0.0000   0.0000   0.0000

          k = 0.2500-0.5000-0.3500 ( 19992 PWs)   bands (ev):

   -80.3649 -47.3194 -47.3150 -47.3150 -14.1558  -5.8074  -4.1025  -4.0867
    -3.4988  -0.8644  -0.6002   0.6672

     occupation numbers 
     1.0000   1.0000   1.0000   1.0000   1.0000   1.0000   0.9992   0.9987
     0.0009   0.0000   0.0000   0.0000

          k =-0.5000-0.5000 0.0000 ( 20028 PWs)   bands (ev):

   -80.3649 -47.3194 -47.3150 -47.3150 -14.1558  -5.8025  -4.1007  -4.1007
    -3.4903  -0.7872  -0.7872   0.8512

     occupation numbers 
     1.0000   1.0000   1.0000   1.0000   1.0000   1.0000   0.9992   0.9992
     0.0007   0.0000   0.0000   0.0000

          k =-0.5000-0.5000 0.1750 ( 19944 PWs)   bands (ev):

   -80.3649 -47.3194 -47.3150 -47.3150 -14.1558  -5.8033  -4.1006  -4.1006
    -3.4853  -0.7913  -0.7913   0.9820

     occupation numbers 
     1.0000   1.0000   1.0000   1.0000   1.0000   1.0000   0.9992   0.9992
     0.0006   0.0000   0.0000   0.0000

          k =-0.5000-0.5000-0.3500 ( 20000 PWs)   bands (ev):

   -80.3649 -47.3194 -47.3150 -47.3150 -14.1558  -5.8041  -4.1005  -4.1005
    -3.4804  -0.7954  -0.7954   0.8738

     occupation numbers 
     1.0000   1.0000   1.0000   1.0000   1.0000   1.0000   0.9992   0.9992
     0.0005   0.0000   0.0000   0.0000

     the Fermi energy is    -3.7976 ev

!    total energy              =    -148.94627658 Ry
     Harris-Foulkes estimate   =    -148.94627656 Ry
     estimated scf accuracy    <          3.9E-10 Ry

     The total energy is the sum of the following terms:

     one-electron contribution =    -210.73299890 Ry
     hartree contribution      =     100.72333705 Ry
     xc contribution           =     -24.71087216 Ry
     ewald contribution        =     -14.22550665 Ry
     smearing contrib. (-TS)   =      -0.00023593 Ry

     convergence has been achieved in  18 iterations

     negative rho (up, down):  5.518E-05 0.000E+00

     Forces acting on atoms (cartesian axes, Ry/au):

     atom    1 type  1   force =     0.00000000    0.00000000   -0.00007808
     atom    2 type  2   force =     0.00000000    0.00000000    0.00007808
     The non-local contrib.  to forces
     atom    1 type  1   force =     0.00000000    0.00000000   -1.09618062
     atom    2 type  2   force =     0.00000000    0.00000000   -0.12245629
     The ionic contribution  to forces
     atom    1 type  1   force =    -0.00000000    0.00000000   -7.26593381
     atom    2 type  2   force =     0.00000000   -0.00000000    7.26593381
     The local contribution  to forces
     atom    1 type  1   force =     0.00000000    0.00000000    8.36202173
     atom    2 type  2   force =    -0.00000000    0.00000000   -7.14700686
     The core correction contribution to forces
     atom    1 type  1   force =     0.00000000    0.00000000    0.00000000
     atom    2 type  2   force =     0.00000000    0.00000000    0.00358559
     The Hubbard contrib.    to forces
     atom    1 type  1   force =     0.00000000    0.00000000    0.00000000
     atom    2 type  2   force =     0.00000000    0.00000000    0.00000000
     The SCF correction term to forces
     atom    1 type  1   force =    -0.00000000   -0.00000000    0.00000707
     atom    2 type  2   force =    -0.00000000    0.00000000    0.00001429

     Total force =     0.000110     Total SCF correction =     0.000016
     SCF correction compared to forces is large: reduce conv_thr to get better values


     Computing stress (Cartesian axis) and pressure


     negative rho (up, down):  5.518E-05 0.000E+00
          total   stress  (Ry/bohr**3)                   (kbar)     P=        0.06
   0.00000367   0.00000000   0.00000000            0.54        0.00        0.00
   0.00000000   0.00000367   0.00000000            0.00        0.54        0.00
   0.00000000   0.00000000  -0.00000611            0.00        0.00       -0.90

     kinetic stress (kbar)    599.24      0.00      0.00
                                0.00    599.24      0.00
                                0.00      0.00    557.37

     local   stress (kbar)  -1490.69     -0.00      0.00
                               -0.00  -1490.69      0.00
                                0.00      0.00  -2224.23

     nonloc. stress (kbar)    329.77      0.00      0.00
                                0.00    329.77      0.00
                                0.00      0.00    329.43

     hartree stress (kbar)   1194.74      0.00      0.00
                                0.00   1194.74      0.00
                                0.00      0.00   1390.35

     exc-cor stress (kbar)   -115.32      0.00      0.00
                                0.00   -115.32      0.00
                                0.00      0.00   -114.69

     corecor stress (kbar)   -146.75     -0.00      0.00
                               -0.00   -146.75     -0.00
                                0.00     -0.00   -146.17

     ewald   stress (kbar)   -370.44     -0.00      0.00
                               -0.00   -370.44      0.00
                                0.00      0.00    207.05

     hubbard stress (kbar)      0.00      0.00      0.00
                                0.00      0.00      0.00
                                0.00      0.00      0.00

     london  stress (kbar)      0.00      0.00      0.00
                                0.00      0.00      0.00
                                0.00      0.00      0.00

     DFT-D3  stress (kbar)      0.00      0.00      0.00
                                0.00      0.00      0.00
                                0.00      0.00      0.00

     XDM     stress (kbar)      0.00      0.00      0.00
                                0.00      0.00      0.00
                                0.00      0.00      0.00

     dft-nl  stress (kbar)      0.00      0.00      0.00
                                0.00      0.00      0.00
                                0.00      0.00      0.00

     TS-vdW  stress (kbar)      0.00      0.00      0.00
                                0.00      0.00      0.00
                                0.00      0.00      0.00



     Writing output data file dimer.in_vnscf_coords_5/qe.save/
 
     init_run     :      0.82s CPU      0.90s WALL (       1 calls)
     electrons    :     43.83s CPU     47.78s WALL (       1 calls)
     forces       :      0.42s CPU      0.45s WALL (       1 calls)
     stress       :      1.25s CPU      1.34s WALL (       1 calls)

     Called by init_run:
     wfcinit      :      0.28s CPU      0.30s WALL (       1 calls)
     wfcinit:atom :      0.01s CPU      0.01s WALL (      18 calls)
     wfcinit:wfcr :      0.24s CPU      0.27s WALL (      18 calls)
     potinit      :      0.14s CPU      0.14s WALL (       1 calls)
     hinit0       :      0.21s CPU      0.22s WALL (       1 calls)

     Called by electrons:
     c_bands      :     13.96s CPU     14.82s WALL (      18 calls)
     sum_band     :      5.52s CPU      6.27s WALL (      18 calls)
     v_of_rho     :      0.55s CPU      0.58s WALL (      19 calls)
     v_h          :      0.03s CPU      0.04s WALL (      19 calls)
     v_xc         :      0.57s CPU      0.60s WALL (      21 calls)
     newd         :      2.51s CPU      3.06s WALL (      19 calls)
     mix_rho      :     21.39s CPU     22.90s WALL (      18 calls)

     Called by c_bands:
     init_us_2    :      0.45s CPU      0.47s WALL (     702 calls)
     cegterg      :     12.01s CPU     12.86s WALL (     324 calls)

     Called by sum_band:
     sum_band:bec :      0.00s CPU      0.00s WALL (     324 calls)
     addusdens    :      3.27s CPU      3.83s WALL (      18 calls)

     Called by *egterg:
     h_psi        :      8.89s CPU      9.71s WALL (    1312 calls)
     s_psi        :      0.23s CPU      0.24s WALL (    1312 calls)
     g_psi        :      0.06s CPU      0.06s WALL (     970 calls)
     cdiaghg      :      1.64s CPU      1.66s WALL (    1294 calls)
     cegterg:over :      0.57s CPU      0.58s WALL (     970 calls)
     cegterg:upda :      0.47s CPU      0.47s WALL (     970 calls)
     cegterg:last :      0.14s CPU      0.15s WALL (     324 calls)
     cdiaghg:chol :      0.13s CPU      0.14s WALL (    1294 calls)
     cdiaghg:inve :      0.07s CPU      0.07s WALL (    1294 calls)
     cdiaghg:para :      0.13s CPU      0.14s WALL (    2588 calls)

     Called by h_psi:
     h_psi:calbec :      0.31s CPU      0.34s WALL (    1312 calls)
     vloc_psi     :      8.25s CPU      9.03s WALL (    1312 calls)
     add_vuspsi   :      0.26s CPU      0.28s WALL (    1312 calls)

     General routines
     calbec       :      0.44s CPU      0.46s WALL (    1726 calls)
     fft          :      0.41s CPU      0.45s WALL (     270 calls)
     ffts         :     12.03s CPU     13.26s WALL (   14412 calls)
     fftw         :      9.00s CPU      9.86s WALL (   22812 calls)
     interpolate  :      0.05s CPU      0.05s WALL (      19 calls)
 
     Parallel routines
     fft_scatt_xy :      1.90s CPU      2.09s WALL (   37494 calls)
     fft_scatt_yz :      9.83s CPU     10.93s WALL (   37494 calls)
 
     PWSCF        :     46.50s CPU     53.90s WALL

 
   This run was terminated on:  16:19:16  25Jun2021            

=------------------------------------------------------------------------------=
   JOB DONE.
=------------------------------------------------------------------------------=
