
     Program PWSCF v.6.5 starts on 25Jun2021 at 16:25:55 

     This program is part of the open-source Quantum ESPRESSO suite
     for quantum simulation of materials; please cite
         "P. Giannozzi et al., J. Phys.:Condens. Matter 21 395502 (2009);
         "P. Giannozzi et al., J. Phys.:Condens. Matter 29 465901 (2017);
          URL http://www.quantum-espresso.org", 
     in publications or presentations arising from this work. More details at
     http://www.quantum-espresso.org/quote

     Parallel version (MPI), running on    12 processors

     MPI processes distributed on     1 nodes
     R & G space division:  proc/nbgrp/npool/nimage =      12
     Reading input from znse.in_vnscf_vol_3/qe.in
Warning: card &IONS ignored
Warning: card   ION_DYNAMICS='BFGS', ignored
Warning: card / ignored
Warning: card &CELL ignored
Warning: card  CELL_DYNAMICS = 'BFGS' ignored
Warning: card  CELL_DOFREE = 'ALL' ignored
Warning: card  CELL_FACTOR = 1.0 ignored
Warning: card / ignored
     Message from routine read_cards :
     DEPRECATED: no units specified in CELL_PARAMETERS card

     Current dimensions of program PWSCF are:
     Max number of different atomic species (ntypx) = 10
     Max number of k-points (npk) =  40000
     Max angular momentum in pseudopotentials (lmaxx) =  3
     Message from routine volume:
     axis vectors are left-handed
               file mg.pbesol.UPF: wavefunction(s)  3P renormalized

     Subspace diagonalization in iterative solution of the eigenvalue problem:
     one sub-group per band group will be used
     scalapack distributed-memory algorithm (size of sub-group:  3*  3 procs)

     Message from routine setup:
     using ibrav=0 with symmetry is DISCOURAGED, use correct ibrav instead
 
     Parallelization info
     --------------------
     sticks:   dense  smooth     PW     G-vecs:    dense   smooth      PW
     Min          89      64     20                 1957     1193     201
     Max          90      65     21                 1962     1197     203
     Sum        1069     769    241                23505    14331    2421
 


     bravais-lattice index     =            0
     lattice parameter (alat)  =       7.9288  a.u.
     unit-cell volume          =     352.4632 (a.u.)^3
     number of atoms/cell      =            2
     number of atomic types    =            2
     number of electrons       =        16.00
     number of Kohn-Sham states=           12
     kinetic-energy cutoff     =      45.0000  Ry
     charge density cutoff     =     250.0000  Ry
     convergence threshold     =      1.0E-09
     mixing beta               =       0.3000
     number of iterations used =            8  local-TF  mixing
     Exchange-correlation= SLA  PW   PSX  PSC
                           (   1   4  10   8   0   0   0)
     A smooth kinetic-energy cutoff is imposed at      44.5000 Ry
     height of the smooth step-function =             800.0000 Ry
     width of the smooth step-function  =               1.0000 Ry


     celldm(1)=   7.928839  celldm(2)=   0.000000  celldm(3)=   0.000000
     celldm(4)=   0.000000  celldm(5)=   0.000000  celldm(6)=   0.000000

     crystal axes: (cart. coord. in units of alat)
               a(1) = (   0.707107   0.707107   0.000000 )  
               a(2) = (   0.707107   0.000000   0.707107 )  
               a(3) = (   0.000000   0.707107   0.707107 )  

     reciprocal axes: (cart. coord. in units 2 pi/alat)
               b(1) = (  0.707107  0.707107 -0.707107 )  
               b(2) = (  0.707107 -0.707107  0.707107 )  
               b(3) = ( -0.707107  0.707107  0.707107 )  


     PseudoPot. # 1 for Mg read from file:
     /home/kfg/codes/ThreeBodyTB.jl/src/../pseudo/gbrv_pbesol/mg.pbesol.UPF
     MD5 check sum: cbba17e5274afd115179030b10be074e
     Pseudo is Ultrasoft, Zval = 10.0
     Generated by new atomic code, or converted to UPF format
     Using radial grid of  821 points,  7 beta functions with: 
                l(1) =   0
                l(2) =   0
                l(3) =   0
                l(4) =   1
                l(5) =   1
                l(6) =   2
                l(7) =   2
     Q(r) pseudized with  8 coefficients,  rinner =    1.200   1.200   1.200
                                                       1.200   1.200

     PseudoPot. # 2 for S  read from file:
     /home/kfg/codes/ThreeBodyTB.jl/src/../pseudo/gbrv_pbesol/s.pbesol.UPF
     MD5 check sum: 0ccfa86ec6eb59065d10aaae963ef2a7
     Pseudo is Ultrasoft + core correction, Zval =  6.0
     Generated by new atomic code, or converted to UPF format
     Using radial grid of  907 points,  6 beta functions with: 
                l(1) =   0
                l(2) =   0
                l(3) =   1
                l(4) =   1
                l(5) =   2
                l(6) =   2
     Q(r) pseudized with  8 coefficients,  rinner =    1.300   1.300   1.300
                                                       1.300   1.300

     atomic species   valence    mass     pseudopotential
        Mg            10.00    24.31000     Mg( 1.00)
        S              6.00    32.06000     S ( 1.00)

     24 Sym. Ops. (no inversion) found


                                    s                        frac. trans.

      isym =  1     identity                                     

 cryst.   s( 1) = (     1          0          0      )
                  (     0          1          0      )
                  (     0          0          1      )

 cart.    s( 1) = (  1.0000000  0.0000000  0.0000000 )
                  (  0.0000000  1.0000000  0.0000000 )
                  (  0.0000000  0.0000000  1.0000000 )


      isym =  2     180 deg rotation - cart. axis [0,0,1]        

 cryst.   s( 2) = (    -1          0          0      )
                  (    -1          0          1      )
                  (    -1          1          0      )

 cart.    s( 2) = ( -1.0000000  0.0000000  0.0000000 )
                  (  0.0000000 -1.0000000  0.0000000 )
                  (  0.0000000  0.0000000  1.0000000 )


      isym =  3     180 deg rotation - cart. axis [0,1,0]        

 cryst.   s( 3) = (     0         -1          1      )
                  (     0         -1          0      )
                  (     1         -1          0      )

 cart.    s( 3) = ( -1.0000000  0.0000000  0.0000000 )
                  (  0.0000000  1.0000000  0.0000000 )
                  (  0.0000000  0.0000000 -1.0000000 )


      isym =  4     180 deg rotation - cart. axis [1,0,0]        

 cryst.   s( 4) = (     0          1         -1      )
                  (     1          0         -1      )
                  (     0          0         -1      )

 cart.    s( 4) = (  1.0000000  0.0000000  0.0000000 )
                  (  0.0000000 -1.0000000  0.0000000 )
                  (  0.0000000  0.0000000 -1.0000000 )


      isym =  5     120 deg rotation - cart. axis [-1,-1,-1]     

 cryst.   s( 5) = (     0          1          0      )
                  (     0          0          1      )
                  (     1          0          0      )

 cart.    s( 5) = (  0.0000000  1.0000000  0.0000000 )
                  (  0.0000000  0.0000000  1.0000000 )
                  (  1.0000000  0.0000000  0.0000000 )


      isym =  6     120 deg rotation - cart. axis [-1,1,1]       

 cryst.   s( 6) = (     0         -1          0      )
                  (     1         -1          0      )
                  (     0         -1          1      )

 cart.    s( 6) = (  0.0000000 -1.0000000  0.0000000 )
                  (  0.0000000  0.0000000  1.0000000 )
                  ( -1.0000000  0.0000000  0.0000000 )


      isym =  7     120 deg rotation - cart. axis [1,1,-1]       

 cryst.   s( 7) = (     1          0         -1      )
                  (     0          0         -1      )
                  (     0          1         -1      )

 cart.    s( 7) = (  0.0000000  1.0000000  0.0000000 )
                  (  0.0000000  0.0000000 -1.0000000 )
                  ( -1.0000000  0.0000000  0.0000000 )


      isym =  8     120 deg rotation - cart. axis [1,-1,1]       

 cryst.   s( 8) = (    -1          0          1      )
                  (    -1          1          0      )
                  (    -1          0          0      )

 cart.    s( 8) = (  0.0000000 -1.0000000  0.0000000 )
                  (  0.0000000  0.0000000 -1.0000000 )
                  (  1.0000000  0.0000000  0.0000000 )


      isym =  9     120 deg rotation - cart. axis [1,1,1]        

 cryst.   s( 9) = (     0          0          1      )
                  (     1          0          0      )
                  (     0          1          0      )

 cart.    s( 9) = (  0.0000000  0.0000000  1.0000000 )
                  (  1.0000000  0.0000000  0.0000000 )
                  (  0.0000000  1.0000000  0.0000000 )


      isym = 10     120 deg rotation - cart. axis [-1,1,-1]      

 cryst.   s(10) = (     0          0         -1      )
                  (     0          1         -1      )
                  (     1          0         -1      )

 cart.    s(10) = (  0.0000000  0.0000000  1.0000000 )
                  ( -1.0000000  0.0000000  0.0000000 )
                  (  0.0000000 -1.0000000  0.0000000 )


      isym = 11     120 deg rotation - cart. axis [1,-1,-1]      

 cryst.   s(11) = (    -1          1          0      )
                  (    -1          0          0      )
                  (    -1          0          1      )

 cart.    s(11) = (  0.0000000  0.0000000 -1.0000000 )
                  ( -1.0000000  0.0000000  0.0000000 )
                  (  0.0000000  1.0000000  0.0000000 )


      isym = 12     120 deg rotation - cart. axis [-1,-1,1]      

 cryst.   s(12) = (     1         -1          0      )
                  (     0         -1          1      )
                  (     0         -1          0      )

 cart.    s(12) = (  0.0000000  0.0000000 -1.0000000 )
                  (  1.0000000  0.0000000  0.0000000 )
                  (  0.0000000 -1.0000000  0.0000000 )


      isym = 13     inv. 180 deg rotation - cart. axis [1,1,0]   

 cryst.   s(13) = (    -1          0          0      )
                  (    -1          1          0      )
                  (    -1          0          1      )

 cart.    s(13) = (  0.0000000 -1.0000000  0.0000000 )
                  ( -1.0000000  0.0000000  0.0000000 )
                  (  0.0000000  0.0000000  1.0000000 )


      isym = 14     inv. 180 deg rotation - cart. axis [1,-1,0]  

 cryst.   s(14) = (     1          0          0      )
                  (     0          0          1      )
                  (     0          1          0      )

 cart.    s(14) = (  0.0000000  1.0000000  0.0000000 )
                  (  1.0000000  0.0000000  0.0000000 )
                  (  0.0000000  0.0000000  1.0000000 )


      isym = 15     inv.  90 deg rotation - cart. axis [0,0,-1]  

 cryst.   s(15) = (     0         -1          1      )
                  (     1         -1          0      )
                  (     0         -1          0      )

 cart.    s(15) = (  0.0000000 -1.0000000  0.0000000 )
                  (  1.0000000  0.0000000  0.0000000 )
                  (  0.0000000  0.0000000 -1.0000000 )


      isym = 16     inv.  90 deg rotation - cart. axis [0,0,1]   

 cryst.   s(16) = (     0          1         -1      )
                  (     0          0         -1      )
                  (     1          0         -1      )

 cart.    s(16) = (  0.0000000  1.0000000  0.0000000 )
                  ( -1.0000000  0.0000000  0.0000000 )
                  (  0.0000000  0.0000000 -1.0000000 )


      isym = 17     inv. 180 deg rotation - cart. axis [1,0,1]   

 cryst.   s(17) = (     1         -1          0      )
                  (     0         -1          0      )
                  (     0         -1          1      )

 cart.    s(17) = (  0.0000000  0.0000000 -1.0000000 )
                  (  0.0000000  1.0000000  0.0000000 )
                  ( -1.0000000  0.0000000  0.0000000 )


      isym = 18     inv. 180 deg rotation - cart. axis [-1,0,1]  

 cryst.   s(18) = (     0          0          1      )
                  (     0          1          0      )
                  (     1          0          0      )

 cart.    s(18) = (  0.0000000  0.0000000  1.0000000 )
                  (  0.0000000  1.0000000  0.0000000 )
                  (  1.0000000  0.0000000  0.0000000 )


      isym = 19     inv.  90 deg rotation - cart. axis [0,1,0]   

 cryst.   s(19) = (    -1          1          0      )
                  (    -1          0          1      )
                  (    -1          0          0      )

 cart.    s(19) = (  0.0000000  0.0000000 -1.0000000 )
                  (  0.0000000 -1.0000000  0.0000000 )
                  (  1.0000000  0.0000000  0.0000000 )


      isym = 20     inv.  90 deg rotation - cart. axis [0,-1,0]  

 cryst.   s(20) = (     0          0         -1      )
                  (     1          0         -1      )
                  (     0          1         -1      )

 cart.    s(20) = (  0.0000000  0.0000000  1.0000000 )
                  (  0.0000000 -1.0000000  0.0000000 )
                  ( -1.0000000  0.0000000  0.0000000 )


      isym = 21     inv. 180 deg rotation - cart. axis [0,1,1]   

 cryst.   s(21) = (     1          0         -1      )
                  (     0          1         -1      )
                  (     0          0         -1      )

 cart.    s(21) = (  1.0000000  0.0000000  0.0000000 )
                  (  0.0000000  0.0000000 -1.0000000 )
                  (  0.0000000 -1.0000000  0.0000000 )


      isym = 22     inv. 180 deg rotation - cart. axis [0,1,-1]  

 cryst.   s(22) = (     0          1          0      )
                  (     1          0          0      )
                  (     0          0          1      )

 cart.    s(22) = (  1.0000000  0.0000000  0.0000000 )
                  (  0.0000000  0.0000000  1.0000000 )
                  (  0.0000000  1.0000000  0.0000000 )


      isym = 23     inv.  90 deg rotation - cart. axis [-1,0,0]  

 cryst.   s(23) = (    -1          0          1      )
                  (    -1          0          0      )
                  (    -1          1          0      )

 cart.    s(23) = ( -1.0000000  0.0000000  0.0000000 )
                  (  0.0000000  0.0000000 -1.0000000 )
                  (  0.0000000  1.0000000  0.0000000 )


      isym = 24     inv.  90 deg rotation - cart. axis [1,0,0]   

 cryst.   s(24) = (     0         -1          0      )
                  (     0         -1          1      )
                  (     1         -1          0      )

 cart.    s(24) = ( -1.0000000  0.0000000  0.0000000 )
                  (  0.0000000  0.0000000  1.0000000 )
                  (  0.0000000 -1.0000000  0.0000000 )


   Cartesian axes

     site n.     atom                  positions (alat units)
         1           Mg  tau(   1) = (   0.0000000   0.0000000   0.0000000  )
         2           S   tau(   2) = (   0.3535534   0.3535534   0.3535534  )

   Crystallographic axes

     site n.     atom                  positions (cryst. coord.)
         1           Mg  tau(   1) = (  0.0000000  0.0000000  0.0000000  )
         2           S   tau(   2) = (  0.2500000  0.2500000  0.2500000  )

     number of k points=    29  Gaussian smearing, width (Ry)=  0.0100
                       cart. coord. in units 2pi/alat
        k(    1) = (   0.0000000   0.0000000   0.0000000), wk =   0.0039062
        k(    2) = (  -0.0883883   0.0883883   0.0883883), wk =   0.0312500
        k(    3) = (  -0.1767767   0.1767767   0.1767767), wk =   0.0312500
        k(    4) = (  -0.2651650   0.2651650   0.2651650), wk =   0.0312500
        k(    5) = (   0.3535534  -0.3535534  -0.3535534), wk =   0.0156250
        k(    6) = (   0.0000000   0.0000000   0.1767767), wk =   0.0234375
        k(    7) = (  -0.0883883   0.0883883   0.2651650), wk =   0.0937500
        k(    8) = (  -0.1767767   0.1767767   0.3535534), wk =   0.0937500
        k(    9) = (   0.4419417  -0.4419417  -0.2651650), wk =   0.0937500
        k(   10) = (   0.3535534  -0.3535534  -0.1767767), wk =   0.0937500
        k(   11) = (   0.2651650  -0.2651650  -0.0883883), wk =   0.0937500
        k(   12) = (   0.1767767  -0.1767767   0.0000000), wk =   0.0468750
        k(   13) = (   0.0000000   0.0000000   0.3535534), wk =   0.0234375
        k(   14) = (  -0.0883883   0.0883883   0.4419417), wk =   0.0937500
        k(   15) = (   0.5303301  -0.5303301  -0.1767767), wk =   0.0937500
        k(   16) = (   0.4419417  -0.4419417  -0.0883883), wk =   0.0937500
        k(   17) = (   0.3535534  -0.3535534   0.0000000), wk =   0.0468750
        k(   18) = (   0.0000000   0.0000000   0.5303301), wk =   0.0234375
        k(   19) = (   0.6187184  -0.6187184  -0.0883883), wk =   0.0937500
        k(   20) = (   0.5303301  -0.5303301   0.0000000), wk =   0.0468750
        k(   21) = (   0.0000000   0.0000000  -0.7071068), wk =   0.0117188
        k(   22) = (   0.0000000   0.1767767   0.3535534), wk =   0.0937500
        k(   23) = (   0.6187184  -0.4419417  -0.2651650), wk =   0.1875000
        k(   24) = (   0.5303301  -0.3535534  -0.1767767), wk =   0.0937500
        k(   25) = (   0.7071068  -0.5303301  -0.1767767), wk =   0.0937500
        k(   26) = (   0.6187184  -0.4419417  -0.0883883), wk =   0.1875000
        k(   27) = (   0.5303301  -0.3535534   0.0000000), wk =   0.0937500
        k(   28) = (   0.0000000   0.1767767  -0.7071068), wk =   0.0468750
        k(   29) = (   0.0000000   0.3535534  -0.7071068), wk =   0.0234375

                       cryst. coord.
        k(    1) = (   0.0000000   0.0000000   0.0000000), wk =   0.0039062
        k(    2) = (   0.0000000   0.0000000   0.1250000), wk =   0.0312500
        k(    3) = (   0.0000000   0.0000000   0.2500000), wk =   0.0312500
        k(    4) = (   0.0000000   0.0000000   0.3750000), wk =   0.0312500
        k(    5) = (   0.0000000   0.0000000  -0.5000000), wk =   0.0156250
        k(    6) = (   0.0000000   0.1250000   0.1250000), wk =   0.0234375
        k(    7) = (   0.0000000   0.1250000   0.2500000), wk =   0.0937500
        k(    8) = (   0.0000000   0.1250000   0.3750000), wk =   0.0937500
        k(    9) = (   0.0000000   0.1250000  -0.5000000), wk =   0.0937500
        k(   10) = (   0.0000000   0.1250000  -0.3750000), wk =   0.0937500
        k(   11) = (   0.0000000   0.1250000  -0.2500000), wk =   0.0937500
        k(   12) = (   0.0000000   0.1250000  -0.1250000), wk =   0.0468750
        k(   13) = (   0.0000000   0.2500000   0.2500000), wk =   0.0234375
        k(   14) = (   0.0000000   0.2500000   0.3750000), wk =   0.0937500
        k(   15) = (   0.0000000   0.2500000  -0.5000000), wk =   0.0937500
        k(   16) = (   0.0000000   0.2500000  -0.3750000), wk =   0.0937500
        k(   17) = (   0.0000000   0.2500000  -0.2500000), wk =   0.0468750
        k(   18) = (   0.0000000   0.3750000   0.3750000), wk =   0.0234375
        k(   19) = (   0.0000000   0.3750000  -0.5000000), wk =   0.0937500
        k(   20) = (   0.0000000   0.3750000  -0.3750000), wk =   0.0468750
        k(   21) = (   0.0000000  -0.5000000  -0.5000000), wk =   0.0117188
        k(   22) = (   0.1250000   0.2500000   0.3750000), wk =   0.0937500
        k(   23) = (   0.1250000   0.2500000  -0.5000000), wk =   0.1875000
        k(   24) = (   0.1250000   0.2500000  -0.3750000), wk =   0.0937500
        k(   25) = (   0.1250000   0.3750000  -0.5000000), wk =   0.0937500
        k(   26) = (   0.1250000   0.3750000  -0.3750000), wk =   0.1875000
        k(   27) = (   0.1250000   0.3750000  -0.2500000), wk =   0.0937500
        k(   28) = (   0.1250000  -0.5000000  -0.3750000), wk =   0.0468750
        k(   29) = (   0.2500000  -0.5000000  -0.2500000), wk =   0.0234375

     Dense  grid:    23505 G-vectors     FFT dimensions: (  40,  40,  40)

     Smooth grid:    14331 G-vectors     FFT dimensions: (  36,  36,  36)

     Dynamical RAM for                 wfc:       0.03 MB

     Dynamical RAM for     wfc (w. buffer):       0.82 MB

     Dynamical RAM for           str. fact:       0.06 MB

     Dynamical RAM for           local pot:       0.00 MB

     Dynamical RAM for          nlocal pot:       0.08 MB

     Dynamical RAM for                qrad:       4.27 MB

     Dynamical RAM for          rho,v,vnew:       0.24 MB

     Dynamical RAM for               rhoin:       0.08 MB

     Dynamical RAM for            rho*nmix:       0.48 MB

     Dynamical RAM for           G-vectors:       0.12 MB

     Dynamical RAM for          h,s,v(r/c):       0.01 MB

     Dynamical RAM for          <psi|beta>:       0.01 MB

     Dynamical RAM for                 psi:       0.11 MB

     Dynamical RAM for                hpsi:       0.11 MB

     Dynamical RAM for                spsi:       0.11 MB

     Dynamical RAM for      wfcinit/wfcrot:       0.06 MB

     Dynamical RAM for           addusdens:       6.16 MB

     Dynamical RAM for          addusforce:       6.27 MB

     Dynamical RAM for         addusstress:       6.58 MB

     Estimated static dynamical RAM per process >       6.48 MB

     Estimated max dynamical RAM per process >      13.06 MB

     Estimated total dynamical RAM >     156.69 MB

     Initial potential from superposition of free atoms

     starting charge   15.69974, renormalised to   16.00000
     Starting wfcs are   12 randomized atomic wfcs

     total cpu time spent up to now is        0.3 secs

     Self-consistent Calculation

     iteration #  1     ecut=    45.00 Ry     beta= 0.30
     Davidson diagonalization with overlap
     ethr =  1.00E-02,  avg # of iterations =  4.6

     total cpu time spent up to now is        0.7 secs

     total energy              =    -149.36926324 Ry
     Harris-Foulkes estimate   =    -149.40094733 Ry
     estimated scf accuracy    <       0.19214206 Ry

     iteration #  2     ecut=    45.00 Ry     beta= 0.30
     Davidson diagonalization with overlap
     ethr =  1.20E-03,  avg # of iterations =  1.0

     total cpu time spent up to now is        1.0 secs

     total energy              =    -149.30929738 Ry
     Harris-Foulkes estimate   =    -149.37323482 Ry
     estimated scf accuracy    <       0.11766483 Ry

     iteration #  3     ecut=    45.00 Ry     beta= 0.30
     Davidson diagonalization with overlap
     ethr =  7.35E-04,  avg # of iterations =  2.0

     total cpu time spent up to now is        1.3 secs

     total energy              =    -149.32370619 Ry
     Harris-Foulkes estimate   =    -149.32789708 Ry
     estimated scf accuracy    <       0.00987673 Ry

     iteration #  4     ecut=    45.00 Ry     beta= 0.30
     Davidson diagonalization with overlap
     ethr =  6.17E-05,  avg # of iterations =  2.9

     total cpu time spent up to now is        1.7 secs

     total energy              =    -149.32295848 Ry
     Harris-Foulkes estimate   =    -149.32423851 Ry
     estimated scf accuracy    <       0.00213126 Ry

     iteration #  5     ecut=    45.00 Ry     beta= 0.30
     Davidson diagonalization with overlap
     ethr =  1.33E-05,  avg # of iterations =  2.6

     total cpu time spent up to now is        2.0 secs

     total energy              =    -149.32321333 Ry
     Harris-Foulkes estimate   =    -149.32317458 Ry
     estimated scf accuracy    <       0.00011539 Ry

     iteration #  6     ecut=    45.00 Ry     beta= 0.30
     Davidson diagonalization with overlap
     ethr =  7.21E-07,  avg # of iterations =  2.3

     total cpu time spent up to now is        2.4 secs

     total energy              =    -149.32321687 Ry
     Harris-Foulkes estimate   =    -149.32323144 Ry
     estimated scf accuracy    <       0.00004993 Ry

     iteration #  7     ecut=    45.00 Ry     beta= 0.30
     Davidson diagonalization with overlap
     ethr =  3.12E-07,  avg # of iterations =  1.7

     total cpu time spent up to now is        2.6 secs

     total energy              =    -149.32322531 Ry
     Harris-Foulkes estimate   =    -149.32322418 Ry
     estimated scf accuracy    <       0.00000122 Ry

     iteration #  8     ecut=    45.00 Ry     beta= 0.30
     Davidson diagonalization with overlap
     ethr =  7.65E-09,  avg # of iterations =  3.1

     total cpu time spent up to now is        3.1 secs

     total energy              =    -149.32322599 Ry
     Harris-Foulkes estimate   =    -149.32322586 Ry
     estimated scf accuracy    <       0.00000024 Ry

     iteration #  9     ecut=    45.00 Ry     beta= 0.30
     Davidson diagonalization with overlap
     ethr =  1.48E-09,  avg # of iterations =  2.0

     total cpu time spent up to now is        3.4 secs

     total energy              =    -149.32322602 Ry
     Harris-Foulkes estimate   =    -149.32322601 Ry
     estimated scf accuracy    <       0.00000006 Ry

     iteration # 10     ecut=    45.00 Ry     beta= 0.30
     Davidson diagonalization with overlap
     ethr =  3.96E-10,  avg # of iterations =  2.0

     total cpu time spent up to now is        3.7 secs

     total energy              =    -149.32322604 Ry
     Harris-Foulkes estimate   =    -149.32322604 Ry
     estimated scf accuracy    <       0.00000001 Ry

     iteration # 11     ecut=    45.00 Ry     beta= 0.30
     Davidson diagonalization with overlap
     ethr =  6.91E-11,  avg # of iterations =  2.0

     total cpu time spent up to now is        4.0 secs

     total energy              =    -149.32322604 Ry
     Harris-Foulkes estimate   =    -149.32322604 Ry
     estimated scf accuracy    <          2.7E-09 Ry

     iteration # 12     ecut=    45.00 Ry     beta= 0.30
     Davidson diagonalization with overlap
     ethr =  1.71E-11,  avg # of iterations =  2.0

     total cpu time spent up to now is        4.3 secs

     End of self-consistent calculation

          k = 0.0000 0.0000 0.0000 (  1807 PWs)   bands (ev):

   -72.0081 -38.9632 -38.9632 -38.9632  -8.9646   1.8845   1.8845   1.8845
     4.5393   9.3678   9.3678   9.3678

     occupation numbers 
     1.0000   1.0000   1.0000   1.0000   1.0000   1.0000   1.0000   1.0000
     0.0000   0.0000   0.0000   0.0000

          k =-0.0884 0.0884 0.0884 (  1817 PWs)   bands (ev):

   -72.0081 -38.9634 -38.9632 -38.9632  -8.8980   1.2541   1.8382   1.8382
     5.1822   9.1353   9.5217   9.5217

     occupation numbers 
     1.0000   1.0000   1.0000   1.0000   1.0000   1.0000   1.0000   1.0000
     0.0000   0.0000   0.0000   0.0000

          k =-0.1768 0.1768 0.1768 (  1811 PWs)   bands (ev):

   -72.0080 -38.9638 -38.9633 -38.9633  -8.7277   0.2278   1.7329   1.7329
     6.0668   9.0047   9.5954   9.5954

     occupation numbers 
     1.0000   1.0000   1.0000   1.0000   1.0000   1.0000   1.0000   1.0000
     0.0000   0.0000   0.0000   0.0000

          k =-0.2652 0.2652 0.2652 (  1814 PWs)   bands (ev):

   -72.0080 -38.9642 -38.9634 -38.9634  -8.5420  -0.5554   1.6357   1.6357
     6.3652   9.3274   9.3274   9.3992

     occupation numbers 
     1.0000   1.0000   1.0000   1.0000   1.0000   1.0000   1.0000   1.0000
     0.0000   0.0000   0.0000   0.0000

          k = 0.3536-0.3536-0.3536 (  1802 PWs)   bands (ev):

   -72.0080 -38.9644 -38.9634 -38.9634  -8.4597  -0.8467   1.5976   1.5976
     6.3756   9.1862   9.1862   9.6351

     occupation numbers 
     1.0000   1.0000   1.0000   1.0000   1.0000   1.0000   1.0000   1.0000
     0.0000   0.0000   0.0000   0.0000

          k = 0.0000 0.0000 0.1768 (  1812 PWs)   bands (ev):

   -72.0081 -38.9634 -38.9633 -38.9633  -8.8758   1.2381   1.7316   1.7316
     5.3961   8.8234   9.7262   9.7262

     occupation numbers 
     1.0000   1.0000   1.0000   1.0000   1.0000   1.0000   1.0000   1.0000
     0.0000   0.0000   0.0000   0.0000

          k =-0.0884 0.0884 0.2652 (  1807 PWs)   bands (ev):

   -72.0080 -38.9637 -38.9633 -38.9633  -8.7400   0.4766   1.5892   1.6158
     6.2045   8.5049   9.6045  10.0030

     occupation numbers 
     1.0000   1.0000   1.0000   1.0000   1.0000   1.0000   1.0000   1.0000
     0.0000   0.0000   0.0000   0.0000

          k =-0.1768 0.1768 0.3536 (  1786 PWs)   bands (ev):

   -72.0080 -38.9641 -38.9634 -38.9634  -8.5577  -0.2981   1.4358   1.4955
     6.7219   8.5458   9.3389   9.8465

     occupation numbers 
     1.0000   1.0000   1.0000   1.0000   1.0000   1.0000   1.0000   1.0000
     0.0000   0.0000   0.0000   0.0000

          k = 0.4419-0.4419-0.2652 (  1793 PWs)   bands (ev):

   -72.0080 -38.9643 -38.9635 -38.9634  -8.4377  -0.7136   1.2654   1.4964
     6.8385   8.3963   9.5733   9.9230

     occupation numbers 
     1.0000   1.0000   1.0000   1.0000   1.0000   1.0000   1.0000   1.0000
     0.0000   0.0000   0.0000   0.0000

          k = 0.3536-0.3536-0.1768 (  1795 PWs)   bands (ev):

   -72.0080 -38.9642 -38.9635 -38.9634  -8.4651  -0.6208   1.2012   1.5896
     6.8837   8.4950   9.5227   9.7851

     occupation numbers 
     1.0000   1.0000   1.0000   1.0000   1.0000   1.0000   1.0000   1.0000
     0.0000   0.0000   0.0000   0.0000

          k = 0.2652-0.2652-0.0884 (  1812 PWs)   bands (ev):

   -72.0080 -38.9639 -38.9635 -38.9633  -8.6194  -0.0659   1.2930   1.7289
     6.6921   8.7524   9.3010   9.7233

     occupation numbers 
     1.0000   1.0000   1.0000   1.0000   1.0000   1.0000   1.0000   1.0000
     0.0000   0.0000   0.0000   0.0000

          k = 0.1768-0.1768 0.0000 (  1807 PWs)   bands (ev):

   -72.0080 -38.9636 -38.9634 -38.9633  -8.7965   0.6995   1.5506   1.8359
     5.9069   8.8418   9.6213   9.7015

     occupation numbers 
     1.0000   1.0000   1.0000   1.0000   1.0000   1.0000   1.0000   1.0000
     0.0000   0.0000   0.0000   0.0000

          k = 0.0000 0.0000 0.3536 (  1812 PWs)   bands (ev):

   -72.0080 -38.9638 -38.9634 -38.9634  -8.6501   0.2946   1.3999   1.3999
     6.4589   7.9137   9.7542  10.6717

     occupation numbers 
     1.0000   1.0000   1.0000   1.0000   1.0000   1.0000   1.0000   1.0000
     0.0000   0.0000   0.0000   0.0000

          k =-0.0884 0.0884 0.4419 (  1785 PWs)   bands (ev):

   -72.0080 -38.9640 -38.9635 -38.9635  -8.5027  -0.1611   1.1456   1.2750
     6.6124   7.8590   9.5452  10.9030

     occupation numbers 
     1.0000   1.0000   1.0000   1.0000   1.0000   1.0000   1.0000   1.0000
     0.0000   0.0000   0.0000   0.0000

          k = 0.5303-0.5303-0.1768 (  1796 PWs)   bands (ev):

   -72.0080 -38.9642 -38.9637 -38.9635  -8.3824  -0.4456   0.7534   1.2732
     6.8070   8.2373   9.6461  10.6216

     occupation numbers 
     1.0000   1.0000   1.0000   1.0000   1.0000   1.0000   1.0000   1.0000
     0.0000   0.0000   0.0000   0.0000

          k = 0.4419-0.4419-0.0884 (  1802 PWs)   bands (ev):

   -72.0080 -38.9642 -38.9638 -38.9635  -8.3685  -0.4272   0.4981   1.3944
     7.2041   8.2962   9.8529  10.3374

     occupation numbers 
     1.0000   1.0000   1.0000   1.0000   1.0000   1.0000   1.0000   1.0000
     0.0000   0.0000   0.0000   0.0000

          k = 0.3536-0.3536 0.0000 (  1796 PWs)   bands (ev):

   -72.0080 -38.9641 -38.9637 -38.9634  -8.4705  -0.2619   0.6924   1.5817
     7.5964   8.1345   9.2190  10.1218

     occupation numbers 
     1.0000   1.0000   1.0000   1.0000   1.0000   1.0000   1.0000   1.0000
     0.0000   0.0000   0.0000   0.0000

          k = 0.0000 0.0000 0.5303 (  1764 PWs)   bands (ev):

   -72.0080 -38.9642 -38.9636 -38.9636  -8.4057  -0.3617   1.1084   1.1084
     6.0469   7.3943  10.6668  11.9622

     occupation numbers 
     1.0000   1.0000   1.0000   1.0000   1.0000   1.0000   1.0000   1.0000
     0.0000   0.0000   0.0000   0.0000

          k = 0.6187-0.6187-0.0884 (  1787 PWs)   bands (ev):

   -72.0080 -38.9643 -38.9637 -38.9636  -8.3235  -0.4783   0.7955   1.0739
     6.0588   7.5571  10.8751  12.0269

     occupation numbers 
     1.0000   1.0000   1.0000   1.0000   1.0000   1.0000   1.0000   1.0000
     0.0000   0.0000   0.0000   0.0000

          k = 0.5303-0.5303 0.0000 (  1790 PWs)   bands (ev):

   -72.0080 -38.9642 -38.9639 -38.9636  -8.3083  -0.3226   0.3000   1.1852
     6.5260   8.2708  10.5285  11.3503

     occupation numbers 
     1.0000   1.0000   1.0000   1.0000   1.0000   1.0000   1.0000   1.0000
     0.0000   0.0000   0.0000   0.0000

          k = 0.0000 0.0000-0.7071 (  1772 PWs)   bands (ev):

   -72.0080 -38.9644 -38.9636 -38.9636  -8.2980  -0.5939   0.9969   0.9969
     5.6812   7.1953  11.6721  12.9370

     occupation numbers 
     1.0000   1.0000   1.0000   1.0000   1.0000   1.0000   1.0000   1.0000
     0.0000   0.0000   0.0000   0.0000

          k = 0.0000 0.1768 0.3536 (  1802 PWs)   bands (ev):

   -72.0080 -38.9639 -38.9635 -38.9634  -8.5975   0.0375   1.1657   1.5581
     6.8829   8.2165   9.1309  10.4499

     occupation numbers 
     1.0000   1.0000   1.0000   1.0000   1.0000   1.0000   1.0000   1.0000
     0.0000   0.0000   0.0000   0.0000

          k = 0.6187-0.4419-0.2652 (  1798 PWs)   bands (ev):

   -72.0080 -38.9641 -38.9636 -38.9635  -8.4448  -0.3743   0.8593   1.4093
     7.3488   8.0803   9.1894  10.3747

     occupation numbers 
     1.0000   1.0000   1.0000   1.0000   1.0000   1.0000   1.0000   1.0000
     0.0000   0.0000   0.0000   0.0000

          k = 0.5303-0.3536-0.1768 (  1800 PWs)   bands (ev):

   -72.0080 -38.9642 -38.9637 -38.9635  -8.3782  -0.5462   0.7634   1.3300
     7.4850   7.8523   9.7973  10.2494

     occupation numbers 
     1.0000   1.0000   1.0000   1.0000   1.0000   1.0000   1.0000   1.0000
     0.0000   0.0000   0.0000   0.0000

          k = 0.7071-0.5303-0.1768 (  1791 PWs)   bands (ev):

   -72.0080 -38.9642 -38.9637 -38.9636  -8.3865  -0.3425   0.8382   1.1059
     6.6249   7.9172   9.6278  11.5349

     occupation numbers 
     1.0000   1.0000   1.0000   1.0000   1.0000   1.0000   1.0000   1.0000
     0.0000   0.0000   0.0000   0.0000

          k = 0.6187-0.4419-0.0884 (  1794 PWs)   bands (ev):

   -72.0080 -38.9642 -38.9638 -38.9636  -8.3190  -0.3178   0.4341   1.0334
     6.9365   8.3950   9.6459  10.8451

     occupation numbers 
     1.0000   1.0000   1.0000   1.0000   1.0000   1.0000   1.0000   1.0000
     0.0000   0.0000   0.0000   0.0000

          k = 0.5303-0.3536 0.0000 (  1797 PWs)   bands (ev):

   -72.0080 -38.9641 -38.9639 -38.9635  -8.3443  -0.2680   0.3407   1.1859
     7.3843   8.3453   9.3536  10.7052

     occupation numbers 
     1.0000   1.0000   1.0000   1.0000   1.0000   1.0000   1.0000   1.0000
     0.0000   0.0000   0.0000   0.0000

          k = 0.0000 0.1768-0.7071 (  1790 PWs)   bands (ev):

   -72.0080 -38.9643 -38.9637 -38.9636  -8.2953  -0.4422   0.7226   0.8739
     6.2785   7.7837  10.9138  11.2004

     occupation numbers 
     1.0000   1.0000   1.0000   1.0000   1.0000   1.0000   1.0000   1.0000
     0.0000   0.0000   0.0000   0.0000

          k = 0.0000 0.3536-0.7071 (  1800 PWs)   bands (ev):

   -72.0080 -38.9641 -38.9639 -38.9637  -8.2926  -0.1800   0.3478   0.7627
     7.1618   8.8574   9.7037   9.7219

     occupation numbers 
     1.0000   1.0000   1.0000   1.0000   1.0000   1.0000   1.0000   1.0000
     0.0000   0.0000   0.0000   0.0000

     the Fermi energy is     2.5229 ev

!    total energy              =    -149.32322604 Ry
     Harris-Foulkes estimate   =    -149.32322604 Ry
     estimated scf accuracy    <          6.6E-11 Ry

     The total energy is the sum of the following terms:

     one-electron contribution =    -119.51602618 Ry
     hartree contribution      =      59.33028134 Ry
     xc contribution           =     -24.94690361 Ry
     ewald contribution        =     -64.19057759 Ry
     smearing contrib. (-TS)   =      -0.00000000 Ry

     convergence has been achieved in  12 iterations

     Forces acting on atoms (cartesian axes, Ry/au):

     atom    1 type  1   force =     0.00000000   -0.00000000   -0.00000000
     atom    2 type  2   force =    -0.00000000    0.00000000    0.00000000
     The non-local contrib.  to forces
     atom    1 type  1   force =     0.00000000   -0.00000000    0.00000000
     atom    2 type  2   force =     0.00000000   -0.00000000   -0.00000000
     The ionic contribution  to forces
     atom    1 type  1   force =     0.00000000    0.00000000    0.00000000
     atom    2 type  2   force =    -0.00000000    0.00000000   -0.00000000
     The local contribution  to forces
     atom    1 type  1   force =    -0.00000000   -0.00000000   -0.00000000
     atom    2 type  2   force =    -0.00000000   -0.00000000   -0.00000000
     The core correction contribution to forces
     atom    1 type  1   force =     0.00000000    0.00000000    0.00000000
     atom    2 type  2   force =     0.00000000    0.00000000    0.00000000
     The Hubbard contrib.    to forces
     atom    1 type  1   force =     0.00000000    0.00000000    0.00000000
     atom    2 type  2   force =     0.00000000    0.00000000    0.00000000
     The SCF correction term to forces
     atom    1 type  1   force =     0.00000000   -0.00000000   -0.00000000
     atom    2 type  2   force =     0.00000000   -0.00000000   -0.00000000

     Total force =     0.000000     Total SCF correction =     0.000000


     Computing stress (Cartesian axis) and pressure

          total   stress  (Ry/bohr**3)                   (kbar)     P=      -62.89
  -0.00042755   0.00000000  -0.00000000          -62.89        0.00       -0.00
   0.00000000  -0.00042755   0.00000000            0.00      -62.89        0.00
  -0.00000000   0.00000000  -0.00042755           -0.00        0.00      -62.89

     kinetic stress (kbar)   6532.69     -0.00     -0.00
                               -0.00   6532.69     -0.00
                               -0.00     -0.00   6532.69

     local   stress (kbar)  -6624.99     -0.00      0.00
                               -0.00  -6624.99      0.00
                                0.00      0.00  -6624.99

     nonloc. stress (kbar)   3643.32     -0.00      0.00
                               -0.00   3643.32     -0.00
                                0.00      0.00   3643.32

     hartree stress (kbar)   8254.08     -0.00      0.00
                               -0.00   8254.08     -0.00
                                0.00     -0.00   8254.08

     exc-cor stress (kbar)  -1307.60     -0.00      0.00
                               -0.00  -1307.60      0.00
                                0.00      0.00  -1307.60

     corecor stress (kbar)  -1630.15      0.00     -0.00
                                0.00  -1630.15     -0.00
                               -0.00     -0.00  -1630.15

     ewald   stress (kbar)  -8930.25     -0.00      0.00
                               -0.00  -8930.25     -0.00
                                0.00     -0.00  -8930.25

     hubbard stress (kbar)      0.00      0.00      0.00
                                0.00      0.00      0.00
                                0.00      0.00      0.00

     london  stress (kbar)      0.00      0.00      0.00
                                0.00      0.00      0.00
                                0.00      0.00      0.00

     DFT-D3  stress (kbar)      0.00      0.00      0.00
                                0.00      0.00      0.00
                                0.00      0.00      0.00

     XDM     stress (kbar)      0.00      0.00      0.00
                                0.00      0.00      0.00
                                0.00      0.00      0.00

     dft-nl  stress (kbar)      0.00      0.00      0.00
                                0.00      0.00      0.00
                                0.00      0.00      0.00

     TS-vdW  stress (kbar)      0.00      0.00      0.00
                                0.00      0.00      0.00
                                0.00      0.00      0.00



     Writing output data file znse.in_vnscf_vol_3/qe.save/
 
     init_run     :      0.17s CPU      0.18s WALL (       1 calls)
     electrons    :      3.89s CPU      4.08s WALL (       1 calls)
     forces       :      0.04s CPU      0.04s WALL (       1 calls)
     stress       :      0.10s CPU      0.10s WALL (       1 calls)

     Called by init_run:
     wfcinit      :      0.08s CPU      0.09s WALL (       1 calls)
     wfcinit:atom :      0.00s CPU      0.00s WALL (      29 calls)
     wfcinit:wfcr :      0.08s CPU      0.08s WALL (      29 calls)
     potinit      :      0.01s CPU      0.01s WALL (       1 calls)
     hinit0       :      0.06s CPU      0.06s WALL (       1 calls)

     Called by electrons:
     c_bands      :      3.15s CPU      3.28s WALL (      12 calls)
     sum_band     :      0.51s CPU      0.52s WALL (      12 calls)
     v_of_rho     :      0.05s CPU      0.05s WALL (      13 calls)
     v_h          :      0.00s CPU      0.00s WALL (      13 calls)
     v_xc         :      0.05s CPU      0.05s WALL (      15 calls)
     newd         :      0.12s CPU      0.12s WALL (      13 calls)
     mix_rho      :      0.07s CPU      0.08s WALL (      12 calls)

     Called by c_bands:
     init_us_2    :      0.05s CPU      0.05s WALL (     783 calls)
     cegterg      :      2.94s CPU      3.07s WALL (     348 calls)

     Called by sum_band:
     sum_band:bec :      0.00s CPU      0.00s WALL (     348 calls)
     addusdens    :      0.16s CPU      0.16s WALL (      12 calls)

     Called by *egterg:
     h_psi        :      1.35s CPU      1.42s WALL (    1193 calls)
     s_psi        :      0.03s CPU      0.03s WALL (    1193 calls)
     g_psi        :      0.01s CPU      0.01s WALL (     816 calls)
     cdiaghg      :      1.26s CPU      1.29s WALL (    1164 calls)
     cegterg:over :      0.21s CPU      0.22s WALL (     816 calls)
     cegterg:upda :      0.07s CPU      0.07s WALL (     816 calls)
     cegterg:last :      0.03s CPU      0.03s WALL (     348 calls)
     cdiaghg:chol :      0.08s CPU      0.09s WALL (    1164 calls)
     cdiaghg:inve :      0.05s CPU      0.05s WALL (    1164 calls)
     cdiaghg:para :      0.11s CPU      0.11s WALL (    2328 calls)

     Called by h_psi:
     h_psi:calbec :      0.08s CPU      0.08s WALL (    1193 calls)
     vloc_psi     :      1.23s CPU      1.30s WALL (    1193 calls)
     add_vuspsi   :      0.03s CPU      0.03s WALL (    1193 calls)

     General routines
     calbec       :      0.11s CPU      0.12s WALL (    1686 calls)
     fft          :      0.04s CPU      0.04s WALL (     192 calls)
     ffts         :      0.04s CPU      0.05s WALL (     398 calls)
     fftw         :      1.37s CPU      1.44s WALL (   24696 calls)
     interpolate  :      0.00s CPU      0.00s WALL (      13 calls)
 
     Parallel routines
     fft_scatt_xy :      0.16s CPU      0.17s WALL (   25286 calls)
     fft_scatt_yz :      0.63s CPU      0.66s WALL (   25286 calls)
 
     PWSCF        :      4.31s CPU      5.94s WALL

 
   This run was terminated on:  16:26: 1  25Jun2021            

=------------------------------------------------------------------------------=
   JOB DONE.
=------------------------------------------------------------------------------=
