
     Program PROJWFC v.6.6 starts on 25Jun2021 at 19:47:10 

     This program is part of the open-source Quantum ESPRESSO suite
     for quantum simulation of materials; please cite
         "P. Giannozzi et al., J. Phys.:Condens. Matter 21 395502 (2009);
         "P. Giannozzi et al., J. Phys.:Condens. Matter 29 465901 (2017);
          URL http://www.quantum-espresso.org", 
     in publications or presentations arising from this work. More details at
     http://www.quantum-espresso.org/quote

     Parallel version (MPI), running on     1 processors

     MPI processes distributed on     1 nodes
     Fft bands division:     nmany     =       1

     Reading xml data from directory:

     dft_out/qe.nscf.save/
     Message from routine volume:
     axis vectors are left-handed
     file mg.pbesol.UPF: wavefunction(s)  3P renormalized

     IMPORTANT: XC functional enforced from input :
     Exchange-correlation= PBESOL
                           (   1   4  10   8   0   0   0)
     Any further DFT definition will be discarded
     Please, verify this is what you really want


     G-vector sticks info
     --------------------
     sticks:   dense  smooth     PW     G-vecs:    dense   smooth      PW
     Sum         967     703    211                20179    12339    2109


     Gaussian broadening (read from file): ngauss,degauss=   0    0.010000


     Calling projwave .... 

  Problem Sizes 
  natomwfc =           12
  nbnd     =           33
  nkstot   =           47
  npwx     =         1572
  nkb      =           37


     Atomic states used for projection
     (read from pseudopotential files):

     state #   1: atom   1 (Mg ), wfc  1 (l=0 m= 1)
     state #   2: atom   1 (Mg ), wfc  2 (l=1 m= 1)
     state #   3: atom   1 (Mg ), wfc  2 (l=1 m= 2)
     state #   4: atom   1 (Mg ), wfc  2 (l=1 m= 3)
     state #   5: atom   1 (Mg ), wfc  3 (l=0 m= 1)
     state #   6: atom   1 (Mg ), wfc  4 (l=1 m= 1)
     state #   7: atom   1 (Mg ), wfc  4 (l=1 m= 2)
     state #   8: atom   1 (Mg ), wfc  4 (l=1 m= 3)
     state #   9: atom   2 (S  ), wfc  1 (l=0 m= 1)
     state #  10: atom   2 (S  ), wfc  2 (l=1 m= 1)
     state #  11: atom   2 (S  ), wfc  2 (l=1 m= 2)
     state #  12: atom   2 (S  ), wfc  2 (l=1 m= 3)

 k =   0.0000000000  0.0000000000  0.0000000000
==== e(   1) =   -70.42215 eV ==== 
     psi = 0.997*[#   1]+0.002*[#   5]
    |psi|^2 = 1.000
==== e(   2) =   -37.38624 eV ==== 
     psi = 0.558*[#   2]+0.421*[#   3]+0.009*[#   6]+0.007*[#   7]+0.003*[#   4]
          
    |psi|^2 = 1.000
==== e(   3) =   -37.38624 eV ==== 
     psi = 0.740*[#   4]+0.162*[#   3]+0.081*[#   2]+0.012*[#   8]+0.003*[#   7]
          +0.001*[#   6]
    |psi|^2 = 1.000
==== e(   4) =   -37.38624 eV ==== 
     psi = 0.400*[#   3]+0.343*[#   2]+0.240*[#   4]+0.007*[#   7]+0.006*[#   6]
          +0.004*[#   8]
    |psi|^2 = 1.000
==== e(   5) =    -8.29537 eV ==== 
     psi = 0.663*[#   9]+0.333*[#   5]+0.002*[#   1]
    |psi|^2 = 0.999
==== e(   6) =     2.99132 eV ==== 
     psi = 0.879*[#  10]+0.065*[#  11]+0.026*[#  12]+0.017*[#   6]+0.001*[#   7]
          
    |psi|^2 = 0.989
==== e(   7) =     2.99132 eV ==== 
     psi = 0.718*[#  12]+0.220*[#  11]+0.033*[#  10]+0.014*[#   8]+0.004*[#   7]
          
    |psi|^2 = 0.989
==== e(   8) =     2.99132 eV ==== 
     psi = 0.686*[#  11]+0.226*[#  12]+0.058*[#  10]+0.013*[#   7]+0.004*[#   8]
          +0.001*[#   6]
    |psi|^2 = 0.989
==== e(   9) =     6.31350 eV ==== 
     psi = 0.661*[#   5]+0.329*[#   9]
    |psi|^2 = 0.990
==== e(  10) =    10.84694 eV ==== 
     psi = 0.408*[#   6]+0.299*[#   7]+0.046*[#   8]+0.010*[#  10]+0.007*[#   2]
          +0.007*[#  11]+0.005*[#   3]+0.001*[#  12]
    |psi|^2 = 0.785
==== e(  11) =    10.84694 eV ==== 
     psi = 0.518*[#   8]+0.178*[#   7]+0.058*[#   6]+0.012*[#  12]+0.009*[#   4]
          +0.004*[#  11]+0.003*[#   3]+0.001*[#  10]+0.001*[#   2]
    |psi|^2 = 0.785
==== e(  12) =    10.84694 eV ==== 
     psi = 0.287*[#   6]+0.277*[#   7]+0.189*[#   8]+0.007*[#  10]+0.007*[#  11]
          +0.005*[#   2]+0.005*[#   3]+0.005*[#  12]+0.003*[#   4]
    |psi|^2 = 0.785
==== e(  13) =    13.71093 eV ==== 

    |psi|^2 = 0.000
==== e(  14) =    13.71093 eV ==== 

    |psi|^2 = 0.000
==== e(  15) =    16.59742 eV ==== 
     psi = 0.002*[#   9]
    |psi|^2 = 0.003
==== e(  16) =    16.78200 eV ==== 
     psi = 0.048*[#   6]+0.010*[#   7]+0.006*[#   8]+0.001*[#  10]
    |psi|^2 = 0.067
==== e(  17) =    16.78200 eV ==== 
     psi = 0.057*[#   8]+0.005*[#   7]+0.003*[#   6]+0.002*[#  12]
    |psi|^2 = 0.067
==== e(  18) =    16.78200 eV ==== 
     psi = 0.050*[#   7]+0.013*[#   6]+0.002*[#   8]+0.001*[#  11]
    |psi|^2 = 0.067
==== e(  19) =    20.21114 eV ==== 
     psi = 0.004*[#   9]+0.003*[#   5]
    |psi|^2 = 0.007
==== e(  20) =    27.07183 eV ==== 
     psi = 0.020*[#   8]+0.003*[#   7]+0.002*[#   6]
    |psi|^2 = 0.027
==== e(  21) =    27.07183 eV ==== 
     psi = 0.014*[#   6]+0.008*[#   7]+0.004*[#   8]
    |psi|^2 = 0.027
==== e(  22) =    27.07183 eV ==== 
     psi = 0.015*[#   7]+0.010*[#   6]+0.001*[#   8]
    |psi|^2 = 0.027
==== e(  23) =    28.64614 eV ==== 

    |psi|^2 = 0.000
==== e(  24) =    28.64614 eV ==== 

    |psi|^2 = 0.000
==== e(  25) =    28.72781 eV ==== 
     psi = 0.047*[#   6]+0.034*[#   7]+0.005*[#   8]+0.004*[#  10]+0.003*[#  11]
          
    |psi|^2 = 0.096
==== e(  26) =    28.72781 eV ==== 
     psi = 0.047*[#   8]+0.027*[#   6]+0.012*[#   7]+0.004*[#  12]+0.002*[#  10]
          +0.001*[#  11]
    |psi|^2 = 0.096
==== e(  27) =    28.72781 eV ==== 
     psi = 0.040*[#   7]+0.034*[#   8]+0.013*[#   6]+0.003*[#  11]+0.003*[#  12]
          +0.001*[#  10]
    |psi|^2 = 0.096
==== e(  28) =    33.96167 eV ==== 

    |psi|^2 = 0.000
==== e(  29) =    33.96167 eV ==== 

    |psi|^2 = 0.000
==== e(  30) =    33.96167 eV ==== 

    |psi|^2 = 0.000
==== e(  31) =    38.77445 eV ==== 

    |psi|^2 = 0.002
==== e(  32) =    38.77445 eV ==== 

    |psi|^2 = 0.002
==== e(  33) =    38.77445 eV ==== 

    |psi|^2 = 0.002

 k =  -0.0707106781  0.0707106781  0.0707106781
==== e(   1) =   -70.42214 eV ==== 
     psi = 0.997*[#   1]+0.001*[#   5]
    |psi|^2 = 1.000
==== e(   2) =   -37.38650 eV ==== 
     psi = 0.328*[#   2]+0.328*[#   3]+0.328*[#   4]+0.005*[#   6]+0.005*[#   7]
          +0.005*[#   8]
    |psi|^2 = 1.000
==== e(   3) =   -37.38628 eV ==== 
     psi = 0.589*[#   2]+0.270*[#   3]+0.124*[#   4]+0.010*[#   6]+0.005*[#   7]
          +0.002*[#   8]
    |psi|^2 = 1.000
==== e(   4) =   -37.38628 eV ==== 
     psi = 0.532*[#   4]+0.385*[#   3]+0.067*[#   2]+0.009*[#   8]+0.006*[#   7]
          +0.001*[#   6]
    |psi|^2 = 1.000
==== e(   5) =    -8.23699 eV ==== 
     psi = 0.671*[#   9]+0.307*[#   5]+0.006*[#   6]+0.006*[#   7]+0.006*[#   8]
          +0.002*[#   1]
    |psi|^2 = 0.999
==== e(   6) =     2.50770 eV ==== 
     psi = 0.289*[#  10]+0.289*[#  11]+0.289*[#  12]+0.059*[#   5]+0.033*[#   9]
          +0.010*[#   6]+0.010*[#   7]+0.010*[#   8]
    |psi|^2 = 0.990
==== e(   7) =     2.95584 eV ==== 
     psi = 0.485*[#  12]+0.332*[#  11]+0.145*[#  10]+0.014*[#   8]+0.009*[#   7]
          +0.004*[#   6]
    |psi|^2 = 0.989
==== e(   8) =     2.95584 eV ==== 
     psi = 0.497*[#  10]+0.310*[#  11]+0.156*[#  12]+0.014*[#   6]+0.009*[#   7]
          +0.004*[#   8]
    |psi|^2 = 0.989
==== e(   9) =     6.78487 eV ==== 
     psi = 0.589*[#   5]+0.286*[#   9]+0.025*[#  10]+0.025*[#  11]+0.025*[#  12]
          +0.013*[#   6]+0.013*[#   7]+0.013*[#   8]
    |psi|^2 = 0.988
==== e(  10) =    10.70963 eV ==== 
     psi = 0.226*[#   6]+0.226*[#   7]+0.226*[#   8]+0.032*[#   5]+0.014*[#  10]
          +0.014*[#  11]+0.014*[#  12]+0.004*[#   2]+0.004*[#   3]+0.004*[#   4]
          
    |psi|^2 = 0.764
==== e(  11) =    10.97114 eV ==== 
     psi = 0.450*[#   7]+0.147*[#   6]+0.145*[#   8]+0.015*[#  11]+0.008*[#   3]
          +0.005*[#  10]+0.005*[#  12]+0.003*[#   2]+0.003*[#   4]
    |psi|^2 = 0.780
==== e(  12) =    10.97114 eV ==== 
     psi = 0.350*[#   8]+0.347*[#   6]+0.045*[#   7]+0.011*[#  10]+0.011*[#  12]
          +0.006*[#   2]+0.006*[#   4]+0.001*[#  11]
    |psi|^2 = 0.780
==== e(  13) =    13.36514 eV ==== 
     psi = 0.009*[#   6]+0.006*[#   8]
    |psi|^2 = 0.016
==== e(  14) =    13.36514 eV ==== 
     psi = 0.010*[#   7]+0.005*[#   8]+0.001*[#   6]
    |psi|^2 = 0.016
==== e(  15) =    16.14758 eV ==== 
     psi = 0.019*[#   6]+0.019*[#   7]+0.019*[#   8]+0.004*[#   5]
    |psi|^2 = 0.065
==== e(  16) =    17.25492 eV ==== 
     psi = 0.003*[#   9]+0.001*[#   6]+0.001*[#   7]+0.001*[#   8]
    |psi|^2 = 0.008
==== e(  17) =    17.50523 eV ==== 
     psi = 0.024*[#   6]+0.021*[#   7]+0.002*[#   8]
    |psi|^2 = 0.049
==== e(  18) =    17.50523 eV ==== 
     psi = 0.029*[#   8]+0.010*[#   7]+0.007*[#   6]+0.001*[#  12]
    |psi|^2 = 0.049
==== e(  19) =    21.05001 eV ==== 
     psi = 0.004*[#   6]+0.004*[#   7]+0.004*[#   8]+0.003*[#   9]+0.001*[#   5]
          
    |psi|^2 = 0.018
==== e(  20) =    25.72738 eV ==== 
     psi = 0.023*[#   6]+0.023*[#   7]+0.023*[#   8]+0.002*[#   5]+0.002*[#  10]
          +0.002*[#  11]+0.002*[#  12]
    |psi|^2 = 0.080
==== e(  21) =    25.96565 eV ==== 
     psi = 0.025*[#   6]+0.015*[#   7]+0.003*[#   8]+0.002*[#  10]+0.001*[#  11]
          
    |psi|^2 = 0.047
==== e(  22) =    25.96565 eV ==== 
     psi = 0.026*[#   8]+0.014*[#   7]+0.004*[#   6]+0.002*[#  12]+0.001*[#  11]
          
    |psi|^2 = 0.047
==== e(  23) =    28.07071 eV ==== 
     psi = 0.016*[#   6]+0.008*[#   8]+0.002*[#   7]
    |psi|^2 = 0.027
==== e(  24) =    28.07071 eV ==== 
     psi = 0.015*[#   7]+0.009*[#   8]+0.001*[#   6]
    |psi|^2 = 0.027
==== e(  25) =    29.49129 eV ==== 
     psi = 0.026*[#   6]+0.011*[#   8]+0.008*[#   7]+0.003*[#  10]+0.001*[#  12]
          
    |psi|^2 = 0.051
==== e(  26) =    29.49129 eV ==== 
     psi = 0.022*[#   7]+0.019*[#   8]+0.004*[#   6]+0.002*[#  11]+0.002*[#  12]
          
    |psi|^2 = 0.051
==== e(  27) =    29.85561 eV ==== 
     psi = 0.014*[#   6]+0.014*[#   7]+0.014*[#   8]+0.001*[#   5]+0.001*[#  10]
          +0.001*[#  11]+0.001*[#  12]
    |psi|^2 = 0.047
==== e(  28) =    34.07740 eV ==== 

    |psi|^2 = 0.000
==== e(  29) =    34.82800 eV ==== 
     psi = 0.001*[#   6]
    |psi|^2 = 0.002
==== e(  30) =    34.82800 eV ==== 
     psi = 0.001*[#   7]
    |psi|^2 = 0.002
==== e(  31) =    37.40166 eV ==== 
     psi = 0.002*[#   6]+0.002*[#   7]+0.002*[#   8]
    |psi|^2 = 0.006
==== e(  32) =    38.63884 eV ==== 

    |psi|^2 = 0.002
==== e(  33) =    38.63884 eV ==== 

    |psi|^2 = 0.002

 k =  -0.1414213562  0.1414213562  0.1414213562
==== e(   1) =   -70.42212 eV ==== 
     psi = 0.996*[#   1]
    |psi|^2 = 1.000
==== e(   2) =   -37.38720 eV ==== 
     psi = 0.329*[#   2]+0.329*[#   3]+0.329*[#   4]+0.004*[#   6]+0.004*[#   7]
          +0.004*[#   8]
    |psi|^2 = 1.000
==== e(   3) =   -37.38638 eV ==== 
     psi = 0.643*[#   2]+0.233*[#   4]+0.107*[#   3]+0.011*[#   6]+0.004*[#   8]
          +0.002*[#   7]
    |psi|^2 = 1.000
==== e(   4) =   -37.38638 eV ==== 
     psi = 0.548*[#   3]+0.422*[#   4]+0.012*[#   2]+0.009*[#   7]+0.007*[#   8]
          
    |psi|^2 = 1.000
==== e(   5) =    -8.07668 eV ==== 
     psi = 0.695*[#   9]+0.242*[#   5]+0.019*[#   6]+0.019*[#   7]+0.019*[#   8]
          +0.002*[#   1]
    |psi|^2 = 0.999
==== e(   6) =     1.56658 eV ==== 
     psi = 0.251*[#  10]+0.251*[#  11]+0.251*[#  12]+0.115*[#   5]+0.055*[#   9]
          +0.023*[#   6]+0.023*[#   7]+0.023*[#   8]+0.001*[#   1]
    |psi|^2 = 0.993
==== e(   7) =     2.86731 eV ==== 
     psi = 0.554*[#  10]+0.356*[#  12]+0.035*[#  11]+0.027*[#   6]+0.017*[#   8]
          +0.002*[#   7]
    |psi|^2 = 0.991
==== e(   8) =     2.86731 eV ==== 
     psi = 0.595*[#  11]+0.274*[#  12]+0.076*[#  10]+0.029*[#   7]+0.013*[#   8]
          +0.004*[#   6]
    |psi|^2 = 0.991
==== e(   9) =     7.58046 eV ==== 
     psi = 0.499*[#   5]+0.233*[#   9]+0.046*[#   6]+0.046*[#   7]+0.046*[#   8]
          +0.032*[#  10]+0.032*[#  11]+0.032*[#  12]
    |psi|^2 = 0.968
==== e(  10) =    10.58921 eV ==== 
     psi = 0.169*[#   6]+0.169*[#   7]+0.169*[#   8]+0.111*[#   5]+0.039*[#  10]
          +0.039*[#  11]+0.039*[#  12]+0.004*[#   9]+0.003*[#   2]+0.003*[#   3]
          +0.003*[#   4]
    |psi|^2 = 0.750
==== e(  11) =    11.11868 eV ==== 
     psi = 0.397*[#   6]+0.190*[#   8]+0.086*[#   7]+0.020*[#  10]+0.010*[#  12]
          +0.007*[#   2]+0.004*[#  11]+0.003*[#   4]+0.002*[#   3]
    |psi|^2 = 0.720
==== e(  12) =    11.11868 eV ==== 
     psi = 0.363*[#   7]+0.259*[#   8]+0.052*[#   6]+0.018*[#  11]+0.013*[#  12]
          +0.007*[#   3]+0.005*[#   4]+0.003*[#  10]
    |psi|^2 = 0.720
==== e(  13) =    13.10646 eV ==== 
     psi = 0.035*[#   7]+0.020*[#   6]+0.015*[#   8]+0.002*[#  11]+0.001*[#  10]
          
    |psi|^2 = 0.075
==== e(  14) =    13.10646 eV ==== 
     psi = 0.032*[#   8]+0.027*[#   6]+0.012*[#   7]+0.002*[#  12]+0.001*[#  10]
          
    |psi|^2 = 0.075
==== e(  15) =    15.35292 eV ==== 
     psi = 0.013*[#   5]+0.009*[#   6]+0.009*[#   7]+0.009*[#   8]+0.002*[#   9]
          
    |psi|^2 = 0.043
==== e(  16) =    18.61318 eV ==== 
     psi = 0.010*[#   6]+0.010*[#   7]+0.010*[#   8]+0.005*[#   9]
    |psi|^2 = 0.038
==== e(  17) =    19.06472 eV ==== 
     psi = 0.018*[#   7]+0.010*[#   6]+0.002*[#   8]+0.001*[#  11]
    |psi|^2 = 0.032
==== e(  18) =    19.06472 eV ==== 
     psi = 0.018*[#   8]+0.010*[#   6]+0.002*[#   7]+0.001*[#  12]
    |psi|^2 = 0.032
==== e(  19) =    22.59428 eV ==== 
     psi = 0.013*[#   6]+0.013*[#   7]+0.013*[#   8]+0.004*[#   5]+0.003*[#  10]
          +0.003*[#  11]+0.003*[#  12]+0.001*[#   9]
    |psi|^2 = 0.055
==== e(  20) =    23.74281 eV ==== 
     psi = 0.031*[#   7]+0.023*[#   6]+0.006*[#   8]+0.003*[#  11]+0.002*[#  10]
          
    |psi|^2 = 0.067
==== e(  21) =    23.74281 eV ==== 
     psi = 0.033*[#   8]+0.017*[#   6]+0.009*[#   7]+0.003*[#  12]+0.002*[#  10]
          
    |psi|^2 = 0.067
==== e(  22) =    24.04322 eV ==== 
     psi = 0.023*[#   6]+0.023*[#   7]+0.023*[#   8]+0.008*[#   5]+0.003*[#  10]
          +0.003*[#  11]+0.003*[#  12]+0.002*[#   9]
    |psi|^2 = 0.090
==== e(  23) =    28.09215 eV ==== 
     psi = 0.013*[#   6]+0.006*[#   8]+0.003*[#   7]
    |psi|^2 = 0.022
==== e(  24) =    28.09215 eV ==== 
     psi = 0.012*[#   7]+0.008*[#   8]+0.002*[#   6]
    |psi|^2 = 0.022
==== e(  25) =    29.83856 eV ==== 
     psi = 0.025*[#   7]+0.011*[#   8]+0.006*[#   6]+0.003*[#  11]+0.002*[#  12]
          
    |psi|^2 = 0.048
==== e(  26) =    29.83856 eV ==== 
     psi = 0.022*[#   6]+0.017*[#   8]+0.003*[#  10]+0.003*[#   7]+0.002*[#  12]
          
    |psi|^2 = 0.048
==== e(  27) =    31.20574 eV ==== 
     psi = 0.005*[#   6]+0.005*[#   7]+0.005*[#   8]+0.002*[#   5]
    |psi|^2 = 0.019
==== e(  28) =    34.41361 eV ==== 

    |psi|^2 = 0.000
==== e(  29) =    34.81540 eV ==== 
     psi = 0.003*[#   6]+0.003*[#   7]+0.003*[#   8]+0.001*[#   5]
    |psi|^2 = 0.013
==== e(  30) =    35.35199 eV ==== 
     psi = 0.002*[#   6]
    |psi|^2 = 0.003
==== e(  31) =    35.35199 eV ==== 
     psi = 0.001*[#   7]+0.001*[#   8]
    |psi|^2 = 0.003
==== e(  32) =    38.27776 eV ==== 

    |psi|^2 = 0.003
==== e(  33) =    38.27776 eV ==== 
     psi = 0.001*[#   7]
    |psi|^2 = 0.003

 k =  -0.2121320344  0.2121320344  0.2121320344
==== e(   1) =   -70.42209 eV ==== 
     psi = 0.995*[#   1]+0.001*[#  10]+0.001*[#  11]+0.001*[#  12]
    |psi|^2 = 1.000
==== e(   2) =   -37.38804 eV ==== 
     psi = 0.329*[#   2]+0.329*[#   3]+0.329*[#   4]+0.003*[#   6]+0.003*[#   7]
          +0.003*[#   8]
    |psi|^2 = 1.000
==== e(   3) =   -37.38652 eV ==== 
     psi = 0.576*[#   2]+0.388*[#   3]+0.018*[#   4]+0.010*[#   6]+0.006*[#   7]
          
    |psi|^2 = 1.000
==== e(   4) =   -37.38652 eV ==== 
     psi = 0.636*[#   4]+0.267*[#   3]+0.079*[#   2]+0.011*[#   8]+0.004*[#   7]
          +0.001*[#   6]
    |psi|^2 = 1.000
==== e(   5) =    -7.86101 eV ==== 
     psi = 0.732*[#   9]+0.165*[#   5]+0.033*[#   6]+0.033*[#   7]+0.033*[#   8]
          +0.001*[#   1]+0.001*[#  10]+0.001*[#  11]+0.001*[#  12]
    |psi|^2 = 0.999
==== e(   6) =     0.66418 eV ==== 
     psi = 0.230*[#  10]+0.230*[#  11]+0.230*[#  12]+0.148*[#   5]+0.041*[#   9]
          +0.039*[#   6]+0.039*[#   7]+0.039*[#   8]+0.002*[#   1]
    |psi|^2 = 0.996
==== e(   7) =     2.76559 eV ==== 
     psi = 0.418*[#  11]+0.347*[#  12]+0.163*[#  10]+0.029*[#   7]+0.024*[#   8]
          +0.011*[#   6]
    |psi|^2 = 0.992
==== e(   8) =     2.76559 eV ==== 
     psi = 0.456*[#  10]+0.271*[#  12]+0.201*[#  11]+0.032*[#   6]+0.019*[#   8]
          +0.014*[#   7]
    |psi|^2 = 0.992
==== e(   9) =     7.99001 eV ==== 
     psi = 0.437*[#   5]+0.190*[#   9]+0.080*[#   6]+0.080*[#   7]+0.080*[#   8]
          +0.014*[#  10]+0.014*[#  11]+0.014*[#  12]
    |psi|^2 = 0.912
==== e(  10) =    10.88512 eV ==== 
     psi = 0.192*[#   5]+0.115*[#   6]+0.115*[#   7]+0.115*[#   8]+0.071*[#  10]
          +0.071*[#  11]+0.071*[#  12]+0.012*[#   9]+0.002*[#   2]+0.002*[#   3]
          +0.002*[#   4]+0.001*[#   1]
    |psi|^2 = 0.770
==== e(  11) =    10.91435 eV ==== 
     psi = 0.366*[#   6]+0.111*[#   8]+0.080*[#   7]+0.023*[#  10]+0.007*[#   2]
          +0.007*[#  12]+0.005*[#  11]+0.002*[#   4]+0.002*[#   3]
    |psi|^2 = 0.602
==== e(  12) =    10.91435 eV ==== 
     psi = 0.291*[#   7]+0.260*[#   8]+0.018*[#  11]+0.016*[#  12]+0.006*[#   6]
          +0.005*[#   3]+0.005*[#   4]
    |psi|^2 = 0.602
==== e(  13) =    13.71013 eV ==== 
     psi = 0.091*[#   6]+0.050*[#   7]+0.009*[#   8]+0.008*[#  10]+0.005*[#  11]
          +0.002*[#   2]
    |psi|^2 = 0.166
==== e(  14) =    13.71013 eV ==== 
     psi = 0.091*[#   8]+0.049*[#   7]+0.009*[#   6]+0.009*[#  12]+0.005*[#  11]
          +0.002*[#   4]
    |psi|^2 = 0.166
==== e(  15) =    14.94215 eV ==== 
     psi = 0.024*[#   5]+0.007*[#   9]+0.001*[#   6]+0.001*[#   7]+0.001*[#   8]
          
    |psi|^2 = 0.037
==== e(  16) =    20.00498 eV ==== 
     psi = 0.026*[#   6]+0.026*[#   7]+0.026*[#   8]+0.011*[#   9]+0.005*[#   5]
          +0.004*[#  10]+0.004*[#  11]+0.004*[#  12]
    |psi|^2 = 0.107
==== e(  17) =    20.41652 eV ==== 
     psi = 0.035*[#   7]+0.021*[#   6]+0.012*[#   8]+0.005*[#  11]+0.003*[#  10]
          +0.002*[#  12]
    |psi|^2 = 0.079
==== e(  18) =    20.41652 eV ==== 
     psi = 0.034*[#   8]+0.024*[#   6]+0.010*[#   7]+0.005*[#  12]+0.003*[#  10]
          +0.001*[#  11]
    |psi|^2 = 0.079
==== e(  19) =    21.95706 eV ==== 
     psi = 0.021*[#   5]+0.021*[#   6]+0.021*[#   7]+0.021*[#   8]+0.008*[#  10]
          +0.008*[#  11]+0.008*[#  12]
    |psi|^2 = 0.109
==== e(  20) =    22.03316 eV ==== 
     psi = 0.024*[#   6]+0.010*[#   7]+0.005*[#   8]+0.002*[#  10]
    |psi|^2 = 0.043
==== e(  21) =    22.03316 eV ==== 
     psi = 0.021*[#   8]+0.016*[#   7]+0.002*[#   6]+0.002*[#  12]+0.001*[#  11]
          
    |psi|^2 = 0.043
==== e(  22) =    25.47019 eV ==== 
     psi = 0.005*[#   6]+0.005*[#   7]+0.005*[#   8]+0.002*[#   9]
    |psi|^2 = 0.018
==== e(  23) =    28.17278 eV ==== 
     psi = 0.012*[#   6]+0.004*[#   7]+0.002*[#   8]
    |psi|^2 = 0.020
==== e(  24) =    28.17278 eV ==== 
     psi = 0.010*[#   8]+0.008*[#   7]
    |psi|^2 = 0.020
==== e(  25) =    29.95181 eV ==== 
     psi = 0.024*[#   6]+0.014*[#   7]+0.004*[#  10]+0.002*[#  11]+0.002*[#   8]
          
    |psi|^2 = 0.048
==== e(  26) =    29.95181 eV ==== 
     psi = 0.025*[#   8]+0.013*[#   7]+0.004*[#  12]+0.002*[#   6]+0.002*[#  11]
          
    |psi|^2 = 0.048
==== e(  27) =    31.51597 eV ==== 
     psi = 0.004*[#   6]+0.004*[#   7]+0.004*[#   8]+0.004*[#   5]+0.002*[#  10]
          +0.002*[#  11]+0.002*[#  12]
    |psi|^2 = 0.023
==== e(  28) =    32.67685 eV ==== 

    |psi|^2 = 0.003
==== e(  29) =    33.78659 eV ==== 
     psi = 0.001*[#   8]
    |psi|^2 = 0.002
==== e(  30) =    33.78659 eV ==== 
     psi = 0.001*[#   7]
    |psi|^2 = 0.002
==== e(  31) =    34.92556 eV ==== 

    |psi|^2 = 0.000
==== e(  32) =    37.20633 eV ==== 
     psi = 0.003*[#   6]+0.002*[#   8]+0.001*[#   7]
    |psi|^2 = 0.007
==== e(  33) =    37.20633 eV ==== 
     psi = 0.003*[#   7]+0.002*[#   8]
    |psi|^2 = 0.007

 k =  -0.2828427125  0.2828427125  0.2828427125
==== e(   1) =   -70.42207 eV ==== 
     psi = 0.995*[#   1]+0.001*[#  10]+0.001*[#  11]+0.001*[#  12]
    |psi|^2 = 1.000
==== e(   2) =   -37.38872 eV ==== 
     psi = 0.330*[#   2]+0.330*[#   3]+0.330*[#   4]+0.002*[#   6]+0.002*[#   7]
          +0.002*[#   8]+0.001*[#   9]
    |psi|^2 = 1.000
==== e(   3) =   -37.38664 eV ==== 
     psi = 0.615*[#   3]+0.301*[#   2]+0.065*[#   4]+0.010*[#   7]+0.005*[#   6]
          +0.001*[#   8]
    |psi|^2 = 1.000
==== e(   4) =   -37.38664 eV ==== 
     psi = 0.589*[#   4]+0.353*[#   2]+0.040*[#   3]+0.010*[#   8]+0.006*[#   6]
          
    |psi|^2 = 1.000
==== e(   5) =    -7.66887 eV ==== 
     psi = 0.770*[#   9]+0.104*[#   5]+0.041*[#   6]+0.041*[#   7]+0.041*[#   8]
          
    |psi|^2 = 0.999
==== e(   6) =     0.02641 eV ==== 
     psi = 0.219*[#  10]+0.219*[#  11]+0.219*[#  12]+0.172*[#   5]+0.051*[#   6]
          +0.051*[#   7]+0.051*[#   8]+0.014*[#   9]+0.002*[#   1]
    |psi|^2 = 0.998
==== e(   7) =     2.68872 eV ==== 
     psi = 0.549*[#  12]+0.307*[#  11]+0.062*[#  10]+0.046*[#   8]+0.025*[#   7]
          +0.005*[#   6]
    |psi|^2 = 0.993
==== e(   8) =     2.68872 eV ==== 
     psi = 0.550*[#  10]+0.305*[#  11]+0.063*[#  12]+0.046*[#   6]+0.025*[#   7]
          +0.005*[#   8]
    |psi|^2 = 0.993
==== e(   9) =     8.02453 eV ==== 
     psi = 0.419*[#   5]+0.169*[#   9]+0.087*[#   6]+0.087*[#   7]+0.087*[#   8]
          +0.005*[#  10]+0.005*[#  11]+0.005*[#  12]
    |psi|^2 = 0.866
==== e(  10) =    10.62937 eV ==== 
     psi = 0.311*[#   6]+0.185*[#   7]+0.025*[#   8]+0.021*[#  10]+0.012*[#  11]
          +0.006*[#   2]+0.004*[#   3]+0.002*[#  12]
    |psi|^2 = 0.565
==== e(  11) =    10.62937 eV ==== 
     psi = 0.322*[#   8]+0.162*[#   7]+0.037*[#   6]+0.021*[#  12]+0.011*[#  11]
          +0.006*[#   4]+0.003*[#   3]+0.002*[#  10]
    |psi|^2 = 0.565
==== e(  12) =    11.30226 eV ==== 
     psi = 0.217*[#   5]+0.087*[#   6]+0.087*[#   7]+0.087*[#   8]+0.080*[#  10]
          +0.080*[#  11]+0.080*[#  12]+0.008*[#   9]+0.002*[#   1]+0.002*[#   2]
          +0.002*[#   3]+0.002*[#   4]
    |psi|^2 = 0.736
==== e(  13) =    14.93531 eV ==== 
     psi = 0.079*[#   6]+0.025*[#   7]+0.022*[#   8]+0.010*[#  10]+0.003*[#  11]
          +0.003*[#  12]+0.002*[#   2]
    |psi|^2 = 0.144
==== e(  14) =    14.93531 eV ==== 
     psi = 0.062*[#   8]+0.059*[#   7]+0.008*[#  12]+0.008*[#  11]+0.004*[#   6]
          +0.001*[#   3]+0.001*[#   4]
    |psi|^2 = 0.144
==== e(  15) =    15.23530 eV ==== 
     psi = 0.052*[#   5]+0.010*[#   9]+0.007*[#  10]+0.007*[#  11]+0.007*[#  12]
          +0.003*[#   6]+0.003*[#   7]+0.003*[#   8]
    |psi|^2 = 0.092
==== e(  16) =    18.88961 eV ==== 
     psi = 0.075*[#   7]+0.061*[#   8]+0.012*[#   6]+0.010*[#  11]+0.008*[#  12]
          +0.002*[#   3]+0.002*[#  10]+0.001*[#   4]
    |psi|^2 = 0.171
==== e(  17) =    18.88961 eV ==== 
     psi = 0.087*[#   6]+0.038*[#   8]+0.024*[#   7]+0.012*[#  10]+0.005*[#  12]
          +0.003*[#  11]+0.002*[#   2]
    |psi|^2 = 0.171
==== e(  18) =    19.04205 eV ==== 
     psi = 0.042*[#   6]+0.042*[#   7]+0.042*[#   8]+0.022*[#   9]+0.018*[#   5]
          +0.011*[#  10]+0.011*[#  11]+0.011*[#  12]
    |psi|^2 = 0.199
==== e(  19) =    23.36395 eV ==== 
     psi = 0.012*[#   5]+0.008*[#   6]+0.008*[#   7]+0.008*[#   8]+0.005*[#  10]
          +0.005*[#  11]+0.005*[#  12]+0.002*[#   9]
    |psi|^2 = 0.055
==== e(  20) =    23.55801 eV ==== 
     psi = 0.004*[#   6]+0.002*[#   7]
    |psi|^2 = 0.006
==== e(  21) =    23.55801 eV ==== 
     psi = 0.004*[#   8]+0.002*[#   7]
    |psi|^2 = 0.006
==== e(  22) =    27.84299 eV ==== 
     psi = 0.003*[#   6]+0.003*[#   7]+0.003*[#   8]+0.001*[#   9]
    |psi|^2 = 0.014
==== e(  23) =    27.91374 eV ==== 
     psi = 0.006*[#   6]+0.002*[#   7]+0.001*[#   8]
    |psi|^2 = 0.010
==== e(  24) =    27.91374 eV ==== 
     psi = 0.005*[#   8]+0.004*[#   7]
    |psi|^2 = 0.010
==== e(  25) =    29.00345 eV ==== 
     psi = 0.004*[#   5]+0.003*[#   6]+0.003*[#   7]+0.003*[#   8]+0.002*[#   9]
          +0.001*[#  10]+0.001*[#  11]+0.001*[#  12]
    |psi|^2 = 0.019
==== e(  26) =    29.67388 eV ==== 
     psi = 0.024*[#   6]+0.012*[#   7]+0.006*[#   8]+0.003*[#  10]+0.001*[#  11]
          
    |psi|^2 = 0.048
==== e(  27) =    29.67388 eV ==== 
     psi = 0.022*[#   8]+0.016*[#   7]+0.004*[#   6]+0.003*[#  12]+0.002*[#  11]
          
    |psi|^2 = 0.048
==== e(  28) =    32.22396 eV ==== 
     psi = 0.004*[#   7]+0.001*[#  11]+0.001*[#   6]+0.001*[#   8]
    |psi|^2 = 0.008
==== e(  29) =    32.22396 eV ==== 
     psi = 0.003*[#   6]+0.003*[#   8]
    |psi|^2 = 0.008
==== e(  30) =    32.88378 eV ==== 

    |psi|^2 = 0.002
==== e(  31) =    35.48176 eV ==== 

    |psi|^2 = 0.000
==== e(  32) =    36.40426 eV ==== 
     psi = 0.005*[#   7]+0.003*[#   8]
    |psi|^2 = 0.010
==== e(  33) =    36.40426 eV ==== 
     psi = 0.005*[#   6]+0.002*[#   8]
    |psi|^2 = 0.010

 k =   0.3535533906 -0.3535533906 -0.3535533906
==== e(   1) =   -70.42207 eV ==== 
     psi = 0.994*[#   1]+0.002*[#  10]+0.002*[#  11]+0.002*[#  12]
    |psi|^2 = 1.000
==== e(   2) =   -37.38899 eV ==== 
     psi = 0.330*[#   2]+0.330*[#   3]+0.330*[#   4]+0.002*[#   6]+0.002*[#   7]
          +0.002*[#   8]+0.001*[#   9]
    |psi|^2 = 1.000
==== e(   3) =   -37.38668 eV ==== 
     psi = 0.579*[#   4]+0.260*[#   2]+0.143*[#   3]+0.010*[#   8]+0.004*[#   6]
          +0.002*[#   7]
    |psi|^2 = 1.000
==== e(   4) =   -37.38668 eV ==== 
     psi = 0.512*[#   3]+0.394*[#   2]+0.076*[#   4]+0.008*[#   7]+0.007*[#   6]
          +0.001*[#   8]
    |psi|^2 = 1.000
==== e(   5) =    -7.59042 eV ==== 
     psi = 0.787*[#   9]+0.080*[#   5]+0.044*[#   6]+0.044*[#   7]+0.044*[#   8]
          
    |psi|^2 = 0.999
==== e(   6) =    -0.20517 eV ==== 
     psi = 0.215*[#  10]+0.215*[#  11]+0.215*[#  12]+0.182*[#   5]+0.056*[#   6]
          +0.056*[#   7]+0.056*[#   8]+0.002*[#   1]
    |psi|^2 = 0.999
==== e(   7) =     2.66050 eV ==== 
     psi = 0.595*[#  12]+0.202*[#  10]+0.116*[#  11]+0.052*[#   8]+0.018*[#   6]
          +0.010*[#   7]
    |psi|^2 = 0.993
==== e(   8) =     2.66050 eV ==== 
     psi = 0.493*[#  11]+0.407*[#  10]+0.043*[#   7]+0.036*[#   6]+0.014*[#  12]
          +0.001*[#   8]
    |psi|^2 = 0.993
==== e(   9) =     8.00102 eV ==== 
     psi = 0.419*[#   5]+0.165*[#   9]+0.086*[#   6]+0.086*[#   7]+0.086*[#   8]
          +0.003*[#  10]+0.003*[#  11]+0.003*[#  12]
    |psi|^2 = 0.853
==== e(  10) =    10.51659 eV ==== 
     psi = 0.333*[#   6]+0.144*[#   8]+0.039*[#   7]+0.023*[#  10]+0.010*[#  12]
          +0.006*[#   2]+0.003*[#   4]+0.003*[#  11]
    |psi|^2 = 0.562
==== e(  11) =    10.51659 eV ==== 
     psi = 0.305*[#   7]+0.200*[#   8]+0.021*[#  11]+0.014*[#  12]+0.011*[#   6]
          +0.006*[#   3]+0.004*[#   4]
    |psi|^2 = 0.562
==== e(  12) =    11.44112 eV ==== 
     psi = 0.215*[#   5]+0.078*[#  10]+0.078*[#  11]+0.078*[#  12]+0.078*[#   6]
          +0.078*[#   7]+0.078*[#   8]+0.004*[#   9]+0.002*[#   1]+0.001*[#   2]
          +0.001*[#   3]+0.001*[#   4]
    |psi|^2 = 0.695
==== e(  13) =    15.74752 eV ==== 
     psi = 0.084*[#   5]+0.014*[#  10]+0.014*[#  11]+0.014*[#  12]+0.004*[#   6]
          +0.004*[#   7]+0.004*[#   8]+0.001*[#   9]
    |psi|^2 = 0.143
==== e(  14) =    16.01603 eV ==== 
     psi = 0.011*[#   6]+0.004*[#   7]+0.004*[#  10]+0.003*[#   8]+0.001*[#  11]
          +0.001*[#  12]
    |psi|^2 = 0.025
==== e(  15) =    16.01603 eV ==== 
     psi = 0.009*[#   8]+0.008*[#   7]+0.003*[#  12]+0.003*[#  11]
    |psi|^2 = 0.025
==== e(  16) =    17.54957 eV ==== 
     psi = 0.153*[#   8]+0.073*[#   7]+0.031*[#   6]+0.019*[#  12]+0.009*[#  11]
          +0.004*[#  10]+0.003*[#   4]+0.002*[#   3]
    |psi|^2 = 0.295
==== e(  17) =    17.54957 eV ==== 
     psi = 0.141*[#   6]+0.099*[#   7]+0.019*[#   8]+0.017*[#  10]+0.012*[#  11]
          +0.003*[#   2]+0.002*[#  12]+0.002*[#   3]
    |psi|^2 = 0.295
==== e(  18) =    18.09872 eV ==== 
     psi = 0.045*[#   6]+0.045*[#   7]+0.045*[#   8]+0.035*[#   9]+0.010*[#  10]
          +0.010*[#  11]+0.010*[#  12]+0.004*[#   5]
    |psi|^2 = 0.208
==== e(  19) =    24.98918 eV ==== 
     psi = 0.004*[#   6]+0.001*[#   8]
    |psi|^2 = 0.007
==== e(  20) =    24.98918 eV ==== 
     psi = 0.003*[#   7]+0.003*[#   8]
    |psi|^2 = 0.007
==== e(  21) =    25.17990 eV ==== 
     psi = 0.015*[#   5]+0.011*[#   6]+0.011*[#   7]+0.011*[#   8]+0.008*[#  10]
          +0.008*[#  11]+0.008*[#  12]+0.003*[#   9]
    |psi|^2 = 0.076
==== e(  22) =    26.81111 eV ==== 
     psi = 0.001*[#   9]
    |psi|^2 = 0.003
==== e(  23) =    27.12930 eV ==== 

    |psi|^2 = 0.002
==== e(  24) =    27.12930 eV ==== 

    |psi|^2 = 0.002
==== e(  25) =    29.41038 eV ==== 
     psi = 0.024*[#   8]+0.019*[#   7]+0.002*[#  12]+0.002*[#  11]
    |psi|^2 = 0.048
==== e(  26) =    29.41038 eV ==== 
     psi = 0.029*[#   6]+0.010*[#   7]+0.005*[#   8]+0.002*[#  10]
    |psi|^2 = 0.048
==== e(  27) =    29.64609 eV ==== 

    |psi|^2 = 0.001
==== e(  28) =    31.80957 eV ==== 
     psi = 0.006*[#   8]+0.005*[#   7]+0.002*[#  12]+0.002*[#  11]
    |psi|^2 = 0.014
==== e(  29) =    31.80957 eV ==== 
     psi = 0.007*[#   6]+0.002*[#   7]+0.002*[#  10]+0.002*[#   8]
    |psi|^2 = 0.014
==== e(  30) =    32.37720 eV ==== 
     psi = 0.002*[#   6]+0.002*[#   7]+0.002*[#   8]+0.001*[#   9]
    |psi|^2 = 0.007
==== e(  31) =    35.28501 eV ==== 

    |psi|^2 = 0.000
==== e(  32) =    35.75901 eV ==== 

    |psi|^2 = 0.000
==== e(  33) =    36.10005 eV ==== 
     psi = 0.005*[#   6]+0.002*[#   8]+0.001*[#   7]
    |psi|^2 = 0.010

 k =   0.0000000000  0.0000000000  0.1414213562
==== e(   1) =   -70.42214 eV ==== 
     psi = 0.997*[#   1]+0.001*[#   5]
    |psi|^2 = 1.000
==== e(   2) =   -37.38649 eV ==== 
     psi = 0.984*[#   2]+0.015*[#   6]
    |psi|^2 = 1.000
==== e(   3) =   -37.38634 eV ==== 
     psi = 0.834*[#   3]+0.149*[#   4]+0.014*[#   7]+0.002*[#   8]
    |psi|^2 = 1.000
==== e(   4) =   -37.38634 eV ==== 
     psi = 0.834*[#   4]+0.149*[#   3]+0.014*[#   8]+0.002*[#   7]
    |psi|^2 = 1.000
==== e(   5) =    -8.21758 eV ==== 
     psi = 0.674*[#   9]+0.299*[#   5]+0.023*[#   6]+0.002*[#   1]+0.001*[#  10]
          
    |psi|^2 = 0.999
==== e(   6) =     2.50113 eV ==== 
     psi = 0.863*[#  10]+0.076*[#   5]+0.043*[#   9]+0.008*[#   6]
    |psi|^2 = 0.990
==== e(   7) =     2.86933 eV ==== 
     psi = 0.849*[#  11]+0.097*[#  12]+0.034*[#   8]+0.009*[#   7]
    |psi|^2 = 0.990
==== e(   8) =     2.86933 eV ==== 
     psi = 0.849*[#  12]+0.097*[#  11]+0.034*[#   7]+0.009*[#   8]
    |psi|^2 = 0.990
==== e(   9) =     6.94230 eV ==== 
     psi = 0.562*[#   5]+0.274*[#   9]+0.101*[#  10]+0.050*[#   6]
    |psi|^2 = 0.987
==== e(  10) =    10.47680 eV ==== 
     psi = 0.680*[#   6]+0.046*[#   5]+0.023*[#  10]+0.012*[#   2]
    |psi|^2 = 0.761
==== e(  11) =    11.12322 eV ==== 
     psi = 0.489*[#   7]+0.239*[#   8]+0.035*[#  11]+0.009*[#   3]+0.004*[#   4]
          +0.003*[#  12]
    |psi|^2 = 0.779
==== e(  12) =    11.12322 eV ==== 
     psi = 0.489*[#   8]+0.239*[#   7]+0.035*[#  12]+0.009*[#   4]+0.004*[#   3]
          +0.003*[#  11]
    |psi|^2 = 0.779
==== e(  13) =    12.66822 eV ==== 
     psi = 0.030*[#   6]+0.005*[#   5]
    |psi|^2 = 0.036
==== e(  14) =    13.87855 eV ==== 

    |psi|^2 = 0.000
==== e(  15) =    16.99344 eV ==== 
     psi = 0.039*[#   6]+0.002*[#   5]
    |psi|^2 = 0.042
==== e(  16) =    17.07131 eV ==== 
     psi = 0.041*[#   7]+0.015*[#   8]+0.001*[#  11]
    |psi|^2 = 0.059
==== e(  17) =    17.07131 eV ==== 
     psi = 0.041*[#   8]+0.015*[#   7]+0.001*[#  12]
    |psi|^2 = 0.059
==== e(  18) =    17.57933 eV ==== 
     psi = 0.003*[#   9]+0.001*[#   5]
    |psi|^2 = 0.005
==== e(  19) =    21.42771 eV ==== 
     psi = 0.015*[#   6]+0.003*[#   9]
    |psi|^2 = 0.020
==== e(  20) =    25.41910 eV ==== 
     psi = 0.052*[#   7]+0.016*[#   8]+0.004*[#  12]+0.002*[#  11]+0.001*[#   3]
          
    |psi|^2 = 0.075
==== e(  21) =    25.41910 eV ==== 
     psi = 0.052*[#   8]+0.016*[#   7]+0.004*[#  11]+0.002*[#  12]+0.001*[#   4]
          
    |psi|^2 = 0.075
==== e(  22) =    26.71187 eV ==== 
     psi = 0.021*[#   6]+0.006*[#  10]
    |psi|^2 = 0.028
==== e(  23) =    27.34104 eV ==== 
     psi = 0.069*[#   6]+0.003*[#   5]+0.001*[#   2]
    |psi|^2 = 0.074
==== e(  24) =    27.35146 eV ==== 

    |psi|^2 = 0.000
==== e(  25) =    29.81942 eV ==== 
     psi = 0.048*[#   7]+0.005*[#  11]+0.001*[#   8]
    |psi|^2 = 0.055
==== e(  26) =    29.81942 eV ==== 
     psi = 0.048*[#   8]+0.005*[#  12]+0.001*[#   7]
    |psi|^2 = 0.055
==== e(  27) =    30.06122 eV ==== 
     psi = 0.015*[#   6]+0.002*[#  10]
    |psi|^2 = 0.018
==== e(  28) =    34.69554 eV ==== 
     psi = 0.003*[#   7]
    |psi|^2 = 0.004
==== e(  29) =    34.69554 eV ==== 
     psi = 0.003*[#   8]
    |psi|^2 = 0.004
==== e(  30) =    35.02573 eV ==== 

    |psi|^2 = 0.000
==== e(  31) =    37.78755 eV ==== 
     psi = 0.001*[#   6]
    |psi|^2 = 0.002
==== e(  32) =    38.02116 eV ==== 
     psi = 0.002*[#   7]+0.002*[#   8]
    |psi|^2 = 0.005
==== e(  33) =    38.02116 eV ==== 
     psi = 0.002*[#   8]+0.002*[#   7]
    |psi|^2 = 0.005

 k =  -0.0707106781  0.0707106781  0.2121320344
==== e(   1) =   -70.42212 eV ==== 
     psi = 0.996*[#   1]+0.001*[#  10]
    |psi|^2 = 1.000
==== e(   2) =   -37.38702 eV ==== 
     psi = 0.677*[#   2]+0.154*[#   3]+0.154*[#   4]+0.008*[#   6]+0.002*[#   7]
          +0.002*[#   8]
    |psi|^2 = 1.000
==== e(   3) =   -37.38646 eV ==== 
     psi = 0.491*[#   3]+0.491*[#   4]+0.008*[#   7]+0.008*[#   8]
    |psi|^2 = 1.000
==== e(   4) =   -37.38642 eV ==== 
     psi = 0.338*[#   3]+0.338*[#   4]+0.308*[#   2]+0.006*[#   7]+0.006*[#   8]
          +0.005*[#   6]
    |psi|^2 = 1.000
==== e(   5) =    -8.09123 eV ==== 
     psi = 0.692*[#   9]+0.247*[#   5]+0.045*[#   6]+0.005*[#   7]+0.005*[#   8]
          +0.002*[#  10]+0.002*[#   1]
    |psi|^2 = 0.999
==== e(   6) =     1.79713 eV ==== 
     psi = 0.548*[#  10]+0.116*[#   5]+0.115*[#  11]+0.115*[#  12]+0.060*[#   9]
          +0.018*[#   7]+0.018*[#   8]+0.003*[#   6]+0.001*[#   1]
    |psi|^2 = 0.993
==== e(   7) =     2.74360 eV ==== 
     psi = 0.461*[#  11]+0.461*[#  12]+0.034*[#   7]+0.034*[#   8]
    |psi|^2 = 0.991
==== e(   8) =     2.79351 eV ==== 
     psi = 0.329*[#  11]+0.329*[#  12]+0.274*[#  10]+0.017*[#   7]+0.017*[#   8]
          +0.017*[#   6]+0.007*[#   5]+0.002*[#   9]
    |psi|^2 = 0.991
==== e(   9) =     7.62979 eV ==== 
     psi = 0.473*[#   5]+0.232*[#   9]+0.118*[#  10]+0.106*[#   6]+0.013*[#   7]
          +0.013*[#   8]+0.008*[#  11]+0.008*[#  12]
    |psi|^2 = 0.973
==== e(  10) =    10.22621 eV ==== 
     psi = 0.544*[#   6]+0.114*[#   5]+0.027*[#  10]+0.014*[#  11]+0.014*[#  12]
          +0.013*[#   7]+0.013*[#   8]+0.010*[#   2]
    |psi|^2 = 0.748
==== e(  11) =    11.20449 eV ==== 
     psi = 0.256*[#   7]+0.256*[#   8]+0.061*[#   6]+0.018*[#  11]+0.018*[#  12]
          +0.009*[#  10]+0.005*[#   3]+0.005*[#   4]+0.001*[#   2]
    |psi|^2 = 0.629
==== e(  12) =    11.38981 eV ==== 
     psi = 0.340*[#   7]+0.340*[#   8]+0.028*[#  11]+0.028*[#  12]+0.006*[#   3]
          +0.006*[#   4]
    |psi|^2 = 0.749
==== e(  13) =    12.25013 eV ==== 
     psi = 0.063*[#   7]+0.063*[#   8]+0.023*[#   6]+0.019*[#   5]+0.007*[#  10]
          +0.005*[#  11]+0.005*[#  12]+0.001*[#   3]+0.001*[#   4]+0.001*[#   9]
          
    |psi|^2 = 0.188
==== e(  14) =    13.87335 eV ==== 
     psi = 0.013*[#   7]+0.013*[#   8]
    |psi|^2 = 0.027
==== e(  15) =    16.27274 eV ==== 
     psi = 0.013*[#   7]+0.013*[#   8]+0.006*[#   6]+0.006*[#   5]+0.001*[#   9]
          
    |psi|^2 = 0.040
==== e(  16) =    17.98331 eV ==== 
     psi = 0.019*[#   7]+0.019*[#   8]+0.001*[#  11]+0.001*[#  12]
    |psi|^2 = 0.042
==== e(  17) =    18.29699 eV ==== 
     psi = 0.028*[#   6]+0.004*[#   9]+0.002*[#   7]+0.002*[#   8]
    |psi|^2 = 0.039
==== e(  18) =    18.92286 eV ==== 
     psi = 0.008*[#   7]+0.008*[#   8]+0.002*[#   6]+0.001*[#   9]
    |psi|^2 = 0.022
==== e(  19) =    22.81135 eV ==== 
     psi = 0.009*[#   6]+0.008*[#   7]+0.008*[#   8]+0.003*[#  10]+0.001*[#   9]
          +0.001*[#  11]+0.001*[#  12]
    |psi|^2 = 0.034
==== e(  20) =    23.62049 eV ==== 
     psi = 0.037*[#   7]+0.037*[#   8]+0.004*[#  11]+0.004*[#  12]
    |psi|^2 = 0.085
==== e(  21) =    23.80099 eV ==== 
     psi = 0.028*[#   6]+0.026*[#   7]+0.026*[#   8]+0.005*[#   5]+0.003*[#  11]
          +0.003*[#  12]+0.002*[#   9]+0.002*[#  10]
    |psi|^2 = 0.094
==== e(  22) =    25.74861 eV ==== 
     psi = 0.025*[#   6]+0.013*[#   7]+0.013*[#   8]+0.003*[#  10]+0.002*[#  11]
          +0.002*[#  12]+0.002*[#   5]
    |psi|^2 = 0.062
==== e(  23) =    26.89264 eV ==== 
     psi = 0.006*[#   7]+0.006*[#   8]
    |psi|^2 = 0.014
==== e(  24) =    26.96107 eV ==== 
     psi = 0.043*[#   6]+0.004*[#   5]+0.002*[#   7]+0.002*[#   8]+0.001*[#  10]
          
    |psi|^2 = 0.055
==== e(  25) =    30.07171 eV ==== 
     psi = 0.010*[#   6]+0.001*[#   5]+0.001*[#  10]+0.001*[#   7]+0.001*[#   8]
          
    |psi|^2 = 0.016
==== e(  26) =    30.22132 eV ==== 
     psi = 0.019*[#   7]+0.019*[#   8]+0.003*[#  11]+0.003*[#  12]
    |psi|^2 = 0.044
==== e(  27) =    31.29807 eV ==== 
     psi = 0.012*[#   7]+0.012*[#   8]+0.002*[#   6]+0.001*[#  11]+0.001*[#  12]
          
    |psi|^2 = 0.029
==== e(  28) =    34.82015 eV ==== 
     psi = 0.004*[#   7]+0.004*[#   8]
    |psi|^2 = 0.010
==== e(  29) =    34.97440 eV ==== 
     psi = 0.002*[#   7]+0.002*[#   8]
    |psi|^2 = 0.004
==== e(  30) =    35.69464 eV ==== 
     psi = 0.003*[#   7]+0.003*[#   8]
    |psi|^2 = 0.006
==== e(  31) =    36.02891 eV ==== 
     psi = 0.003*[#   6]
    |psi|^2 = 0.006
==== e(  32) =    37.52931 eV ==== 
     psi = 0.001*[#   7]+0.001*[#   8]
    |psi|^2 = 0.003
==== e(  33) =    37.76333 eV ==== 
     psi = 0.002*[#   7]+0.002*[#   8]
    |psi|^2 = 0.004

 k =  -0.1414213562  0.1414213562  0.2828427125
==== e(   1) =   -70.42210 eV ==== 
     psi = 0.995*[#   1]+0.002*[#  10]
    |psi|^2 = 1.000
==== e(   2) =   -37.38779 eV ==== 
     psi = 0.526*[#   2]+0.231*[#   3]+0.231*[#   4]+0.005*[#   6]+0.002*[#   7]
          +0.002*[#   8]
    |psi|^2 = 1.000
==== e(   3) =   -37.38660 eV ==== 
     psi = 0.491*[#   3]+0.491*[#   4]+0.008*[#   7]+0.008*[#   8]
    |psi|^2 = 1.000
==== e(   4) =   -37.38656 eV ==== 
     psi = 0.459*[#   2]+0.262*[#   3]+0.262*[#   4]+0.007*[#   6]+0.004*[#   7]
          +0.004*[#   8]
    |psi|^2 = 1.000
==== e(   5) =    -7.89314 eV ==== 
     psi = 0.725*[#   9]+0.174*[#   5]+0.061*[#   6]+0.017*[#   7]+0.017*[#   8]
          +0.002*[#  10]+0.001*[#   1]
    |psi|^2 = 0.999
==== e(   6) =     0.94129 eV ==== 
     psi = 0.378*[#  10]+0.165*[#  11]+0.165*[#  12]+0.143*[#   5]+0.051*[#   9]
          +0.038*[#   7]+0.038*[#   8]+0.015*[#   6]+0.002*[#   1]
    |psi|^2 = 0.995
==== e(   7) =     2.63084 eV ==== 
     psi = 0.452*[#  11]+0.452*[#  12]+0.045*[#   7]+0.045*[#   8]
    |psi|^2 = 0.993
==== e(   8) =     2.67072 eV ==== 
     psi = 0.428*[#  10]+0.241*[#  11]+0.241*[#  12]+0.036*[#   6]+0.015*[#   5]
          +0.013*[#   7]+0.013*[#   8]+0.004*[#   9]
    |psi|^2 = 0.992
==== e(   9) =     8.18836 eV ==== 
     psi = 0.391*[#   5]+0.188*[#   9]+0.172*[#   6]+0.084*[#  10]+0.037*[#   7]
          +0.037*[#   8]+0.005*[#  11]+0.005*[#  12]+0.001*[#   2]
    |psi|^2 = 0.921
==== e(  10) =    10.29375 eV ==== 
     psi = 0.386*[#   6]+0.181*[#   5]+0.054*[#  11]+0.054*[#  12]+0.029*[#   7]
          +0.029*[#   8]+0.020*[#  10]+0.007*[#   2]+0.004*[#   9]
    |psi|^2 = 0.767
==== e(  11) =    10.79383 eV ==== 
     psi = 0.143*[#   7]+0.143*[#   8]+0.087*[#   6]+0.036*[#  10]+0.023*[#   5]
          +0.007*[#   9]+0.004*[#  11]+0.004*[#  12]+0.003*[#   3]+0.003*[#   4]
          +0.002*[#   2]
    |psi|^2 = 0.455
==== e(  12) =    11.35309 eV ==== 
     psi = 0.289*[#   7]+0.289*[#   8]+0.029*[#  11]+0.029*[#  12]+0.006*[#   3]
          +0.006*[#   4]
    |psi|^2 = 0.647
==== e(  13) =    12.93836 eV ==== 
     psi = 0.113*[#   7]+0.113*[#   8]+0.039*[#   6]+0.030*[#   5]+0.027*[#  10]
          +0.010*[#  11]+0.010*[#  12]+0.002*[#   3]+0.002*[#   4]
    |psi|^2 = 0.349
==== e(  14) =    14.28257 eV ==== 
     psi = 0.047*[#   7]+0.047*[#   8]+0.005*[#  11]+0.005*[#  12]
    |psi|^2 = 0.106
==== e(  15) =    15.65994 eV ==== 
     psi = 0.011*[#   5]+0.009*[#   6]+0.005*[#   9]+0.004*[#   7]+0.004*[#   8]
          
    |psi|^2 = 0.032
==== e(  16) =    19.40564 eV ==== 
     psi = 0.024*[#   7]+0.024*[#   8]+0.004*[#  11]+0.004*[#  12]
    |psi|^2 = 0.057
==== e(  17) =    19.63275 eV ==== 
     psi = 0.040*[#   6]+0.018*[#   7]+0.018*[#   8]+0.009*[#   9]+0.004*[#   5]
          +0.003*[#  11]+0.003*[#  12]+0.001*[#  10]
    |psi|^2 = 0.098
==== e(  18) =    20.81728 eV ==== 
     psi = 0.003*[#   7]+0.003*[#   8]+0.003*[#   6]+0.001*[#   5]
    |psi|^2 = 0.013
==== e(  19) =    21.59962 eV ==== 
     psi = 0.036*[#   7]+0.036*[#   8]+0.004*[#  11]+0.004*[#  12]
    |psi|^2 = 0.080
==== e(  20) =    21.73512 eV ==== 
     psi = 0.024*[#   7]+0.024*[#   8]+0.010*[#   5]+0.009*[#  10]+0.005*[#   6]
          +0.003*[#  11]+0.003*[#  12]
    |psi|^2 = 0.080
==== e(  21) =    23.71711 eV ==== 
     psi = 0.057*[#   6]+0.015*[#   7]+0.015*[#   8]+0.007*[#   5]+0.006*[#  11]
          +0.006*[#  12]+0.001*[#  10]+0.001*[#   2]
    |psi|^2 = 0.111
==== e(  22) =    25.41867 eV ==== 
     psi = 0.005*[#   7]+0.005*[#   8]+0.005*[#   6]+0.002*[#   9]
    |psi|^2 = 0.018
==== e(  23) =    26.91850 eV ==== 
     psi = 0.027*[#   6]+0.004*[#   7]+0.004*[#   8]+0.003*[#  10]+0.002*[#   5]
          
    |psi|^2 = 0.043
==== e(  24) =    27.03509 eV ==== 
     psi = 0.011*[#   7]+0.011*[#   8]
    |psi|^2 = 0.024
==== e(  25) =    30.15364 eV ==== 
     psi = 0.010*[#   6]+0.001*[#   7]+0.001*[#   8]+0.001*[#  10]+0.001*[#   5]
          
    |psi|^2 = 0.016
==== e(  26) =    30.33603 eV ==== 
     psi = 0.016*[#   7]+0.016*[#   8]+0.003*[#  11]+0.003*[#  12]
    |psi|^2 = 0.038
==== e(  27) =    31.89230 eV ==== 
     psi = 0.008*[#   7]+0.008*[#   8]+0.002*[#  11]+0.002*[#  12]+0.001*[#   5]
          
    |psi|^2 = 0.024
==== e(  28) =    33.11217 eV ==== 
     psi = 0.003*[#   7]+0.003*[#   8]+0.002*[#   6]
    |psi|^2 = 0.010
==== e(  29) =    34.30029 eV ==== 
     psi = 0.001*[#   6]
    |psi|^2 = 0.004
==== e(  30) =    34.72299 eV ==== 
     psi = 0.003*[#   7]+0.003*[#   8]
    |psi|^2 = 0.006
==== e(  31) =    35.15439 eV ==== 
     psi = 0.004*[#   7]+0.004*[#   8]
    |psi|^2 = 0.009
==== e(  32) =    37.17287 eV ==== 

    |psi|^2 = 0.002
==== e(  33) =    37.28474 eV ==== 
     psi = 0.004*[#   6]
    |psi|^2 = 0.007

 k =  -0.2121320344  0.2121320344  0.3535533906
==== e(   1) =   -70.42207 eV ==== 
     psi = 0.994*[#   1]+0.002*[#  10]+0.001*[#  11]+0.001*[#  12]
    |psi|^2 = 1.000
==== e(   2) =   -37.38850 eV ==== 
     psi = 0.437*[#   2]+0.276*[#   3]+0.276*[#   4]+0.003*[#   6]+0.002*[#   7]
          +0.002*[#   8]+0.001*[#   9]
    |psi|^2 = 1.000
==== e(   3) =   -37.38672 eV ==== 
     psi = 0.549*[#   2]+0.217*[#   3]+0.217*[#   4]+0.009*[#   6]+0.003*[#   7]
          +0.003*[#   8]
    |psi|^2 = 1.000
==== e(   4) =   -37.38671 eV ==== 
     psi = 0.491*[#   3]+0.491*[#   4]+0.008*[#   7]+0.008*[#   8]
    |psi|^2 = 1.000
==== e(   5) =    -7.69048 eV ==== 
     psi = 0.763*[#   9]+0.108*[#   5]+0.066*[#   6]+0.029*[#   7]+0.029*[#   8]
          +0.002*[#  10]
    |psi|^2 = 0.999
==== e(   6) =     0.25163 eV ==== 
     psi = 0.292*[#  10]+0.188*[#  11]+0.188*[#  12]+0.165*[#   5]+0.053*[#   7]
          +0.053*[#   8]+0.033*[#   6]+0.023*[#   9]+0.002*[#   1]
    |psi|^2 = 0.998
==== e(   7) =     2.51765 eV ==== 
     psi = 0.508*[#  10]+0.191*[#  11]+0.191*[#  12]+0.047*[#   6]+0.021*[#   5]
          +0.014*[#   7]+0.014*[#   8]+0.005*[#   9]
    |psi|^2 = 0.993
==== e(   8) =     2.57020 eV ==== 
     psi = 0.447*[#  11]+0.447*[#  12]+0.049*[#   7]+0.049*[#   8]
    |psi|^2 = 0.993
==== e(   9) =     8.33836 eV ==== 
     psi = 0.365*[#   5]+0.188*[#   6]+0.156*[#   9]+0.051*[#  10]+0.048*[#   7]
          +0.048*[#   8]+0.002*[#   2]
    |psi|^2 = 0.859
==== e(  10) =    10.08317 eV ==== 
     psi = 0.238*[#   6]+0.099*[#   7]+0.099*[#   8]+0.058*[#   5]+0.044*[#  11]
          +0.044*[#  12]+0.004*[#   2]+0.003*[#  10]+0.002*[#   3]+0.002*[#   4]
          
    |psi|^2 = 0.593
==== e(  11) =    11.05089 eV ==== 
     psi = 0.258*[#   7]+0.258*[#   8]+0.026*[#  11]+0.026*[#  12]+0.005*[#   3]
          +0.005*[#   4]
    |psi|^2 = 0.580
==== e(  12) =    11.23282 eV ==== 
     psi = 0.198*[#   5]+0.154*[#   6]+0.076*[#  10]+0.063*[#   7]+0.063*[#   8]
          +0.041*[#  11]+0.041*[#  12]+0.016*[#   9]+0.003*[#   2]+0.001*[#   1]
          +0.001*[#   3]+0.001*[#   4]
    |psi|^2 = 0.661
==== e(  13) =    13.94025 eV ==== 
     psi = 0.085*[#   7]+0.085*[#   8]+0.044*[#   6]+0.029*[#  10]+0.017*[#   5]
          +0.005*[#  11]+0.005*[#  12]+0.002*[#   3]+0.002*[#   4]
    |psi|^2 = 0.277
==== e(  14) =    15.35109 eV ==== 
     psi = 0.048*[#   7]+0.048*[#   8]+0.007*[#  11]+0.007*[#  12]
    |psi|^2 = 0.111
==== e(  15) =    15.68852 eV ==== 
     psi = 0.027*[#   5]+0.021*[#   6]+0.009*[#   9]+0.007*[#  10]+0.004*[#  11]
          +0.004*[#  12]+0.003*[#   7]+0.003*[#   8]
    |psi|^2 = 0.077
==== e(  16) =    18.67013 eV ==== 
     psi = 0.079*[#   7]+0.079*[#   8]+0.012*[#  11]+0.012*[#  12]+0.002*[#   3]
          +0.002*[#   4]
    |psi|^2 = 0.185
==== e(  17) =    18.84276 eV ==== 
     psi = 0.056*[#   6]+0.039*[#   7]+0.039*[#   8]+0.016*[#   9]+0.014*[#   5]
          +0.009*[#  10]+0.007*[#  11]+0.007*[#  12]
    |psi|^2 = 0.190
==== e(  18) =    21.17323 eV ==== 
     psi = 0.035*[#   6]+0.017*[#   7]+0.017*[#   8]+0.006*[#   5]+0.005*[#  10]
          +0.004*[#  11]+0.004*[#  12]+0.002*[#   9]
    |psi|^2 = 0.093
==== e(  19) =    22.20146 eV ==== 
     psi = 0.005*[#   7]+0.005*[#   8]
    |psi|^2 = 0.009
==== e(  20) =    22.48169 eV ==== 
     psi = 0.010*[#   6]+0.007*[#   5]+0.005*[#   7]+0.005*[#   8]+0.005*[#  11]
          +0.005*[#  12]+0.003*[#  10]+0.001*[#   9]
    |psi|^2 = 0.041
==== e(  21) =    23.66521 eV ==== 
     psi = 0.021*[#   6]+0.005*[#   5]+0.005*[#   7]+0.005*[#   8]+0.003*[#  11]
          +0.003*[#  12]
    |psi|^2 = 0.044
==== e(  22) =    26.73243 eV ==== 
     psi = 0.021*[#   6]+0.004*[#   7]+0.004*[#   8]+0.003*[#  10]+0.002*[#   5]
          
    |psi|^2 = 0.036
==== e(  23) =    27.32632 eV ==== 
     psi = 0.013*[#   7]+0.013*[#   8]+0.001*[#  11]+0.001*[#  12]
    |psi|^2 = 0.028
==== e(  24) =    27.68322 eV ==== 
     psi = 0.003*[#   6]+0.002*[#   7]+0.002*[#   8]+0.001*[#  10]
    |psi|^2 = 0.010
==== e(  25) =    29.47060 eV ==== 
     psi = 0.007*[#   6]+0.003*[#   7]+0.003*[#   8]+0.002*[#   5]+0.002*[#  11]
          +0.002*[#  12]
    |psi|^2 = 0.020
==== e(  26) =    29.95246 eV ==== 
     psi = 0.012*[#   7]+0.012*[#   8]+0.003*[#  11]+0.003*[#  12]
    |psi|^2 = 0.030
==== e(  27) =    30.01148 eV ==== 
     psi = 0.008*[#   7]+0.008*[#   8]+0.005*[#   6]+0.003*[#  10]+0.002*[#   5]
          +0.001*[#   9]
    |psi|^2 = 0.029
==== e(  28) =    32.44471 eV ==== 
     psi = 0.001*[#   7]+0.001*[#   8]
    |psi|^2 = 0.004
==== e(  29) =    33.28243 eV ==== 
     psi = 0.003*[#   7]+0.003*[#   8]
    |psi|^2 = 0.008
==== e(  30) =    33.64334 eV ==== 
     psi = 0.002*[#   6]
    |psi|^2 = 0.004
==== e(  31) =    34.83759 eV ==== 
     psi = 0.006*[#   7]+0.006*[#   8]
    |psi|^2 = 0.014
==== e(  32) =    35.98974 eV ==== 
     psi = 0.010*[#   6]+0.002*[#   7]+0.002*[#   8]+0.001*[#  10]
    |psi|^2 = 0.015
==== e(  33) =    36.66681 eV ==== 

    |psi|^2 = 0.001

 k =   0.4242640687 -0.4242640687 -0.2828427125
==== e(   1) =   -70.42206 eV ==== 
     psi = 0.994*[#   1]+0.002*[#  10]+0.001*[#  11]+0.001*[#  12]
    |psi|^2 = 1.000
==== e(   2) =   -37.38889 eV ==== 
     psi = 0.366*[#   2]+0.312*[#   3]+0.312*[#   4]+0.002*[#   6]+0.002*[#   7]
          +0.002*[#   8]+0.001*[#   9]
    |psi|^2 = 1.000
==== e(   3) =   -37.38683 eV ==== 
     psi = 0.620*[#   2]+0.182*[#   3]+0.182*[#   4]+0.010*[#   6]+0.003*[#   7]
          +0.003*[#   8]+0.001*[#  10]
    |psi|^2 = 1.000
==== e(   4) =   -37.38674 eV ==== 
     psi = 0.491*[#   3]+0.491*[#   4]+0.008*[#   7]+0.008*[#   8]
    |psi|^2 = 1.000
==== e(   5) =    -7.57093 eV ==== 
     psi = 0.788*[#   9]+0.072*[#   5]+0.058*[#   6]+0.039*[#   7]+0.039*[#   8]
          
    |psi|^2 = 0.999
==== e(   6) =    -0.10059 eV ==== 
     psi = 0.238*[#  10]+0.207*[#  11]+0.207*[#  12]+0.178*[#   5]+0.057*[#   7]
          +0.057*[#   8]+0.052*[#   6]+0.002*[#   1]+0.002*[#   9]
    |psi|^2 = 0.999
==== e(   7) =     2.39295 eV ==== 
     psi = 0.562*[#  10]+0.156*[#  11]+0.156*[#  12]+0.049*[#   6]+0.025*[#   5]
          +0.020*[#   7]+0.020*[#   8]+0.006*[#   9]
    |psi|^2 = 0.993
==== e(   8) =     2.57901 eV ==== 
     psi = 0.449*[#  11]+0.449*[#  12]+0.048*[#   7]+0.048*[#   8]
    |psi|^2 = 0.994
==== e(   9) =     8.35608 eV ==== 
     psi = 0.378*[#   5]+0.152*[#   6]+0.147*[#   9]+0.059*[#   7]+0.059*[#   8]
          +0.034*[#  10]+0.003*[#  11]+0.003*[#  12]+0.001*[#   2]
    |psi|^2 = 0.838
==== e(  10) =     9.89450 eV ==== 
     psi = 0.258*[#   6]+0.098*[#   7]+0.098*[#   8]+0.040*[#  11]+0.040*[#  12]
          +0.027*[#   5]+0.012*[#  10]+0.005*[#   2]+0.002*[#   3]+0.002*[#   4]
          
    |psi|^2 = 0.582
==== e(  11) =    10.80825 eV ==== 
     psi = 0.250*[#   7]+0.250*[#   8]+0.023*[#  11]+0.023*[#  12]+0.005*[#   3]
          +0.005*[#   4]
    |psi|^2 = 0.556
==== e(  12) =    11.76602 eV ==== 
     psi = 0.238*[#   5]+0.115*[#   6]+0.084*[#  10]+0.065*[#   7]+0.065*[#   8]
          +0.054*[#  11]+0.054*[#  12]+0.005*[#   9]+0.002*[#   2]+0.002*[#   1]
          +0.001*[#   3]+0.001*[#   4]
    |psi|^2 = 0.687
==== e(  13) =    14.94486 eV ==== 
     psi = 0.044*[#   6]+0.041*[#   7]+0.041*[#   8]+0.011*[#  10]+0.008*[#   9]
          
    |psi|^2 = 0.149
==== e(  14) =    16.03429 eV ==== 
     psi = 0.016*[#   7]+0.016*[#   8]+0.004*[#  11]+0.004*[#  12]
    |psi|^2 = 0.043
==== e(  15) =    16.40324 eV ==== 
     psi = 0.053*[#   5]+0.027*[#   7]+0.027*[#   8]+0.026*[#  10]+0.019*[#   6]
          +0.007*[#  11]+0.007*[#  12]
    |psi|^2 = 0.169
==== e(  16) =    17.40827 eV ==== 
     psi = 0.094*[#   6]+0.026*[#   9]+0.024*[#   7]+0.024*[#   8]+0.010*[#  11]
          +0.010*[#  12]+0.004*[#  10]+0.001*[#   2]
    |psi|^2 = 0.195
==== e(  17) =    17.65885 eV ==== 
     psi = 0.120*[#   7]+0.120*[#   8]+0.016*[#  11]+0.016*[#  12]+0.003*[#   3]
          +0.003*[#   4]
    |psi|^2 = 0.278
==== e(  18) =    19.53194 eV ==== 
     psi = 0.055*[#   6]+0.028*[#   7]+0.028*[#   8]+0.013*[#   5]+0.009*[#  10]
          +0.008*[#  11]+0.008*[#  12]+0.007*[#   9]+0.001*[#   2]
    |psi|^2 = 0.158
==== e(  19) =    24.08933 eV ==== 
     psi = 0.004*[#   7]+0.004*[#   8]
    |psi|^2 = 0.010
==== e(  20) =    24.32322 eV ==== 
     psi = 0.006*[#   7]+0.006*[#   8]+0.005*[#   5]+0.004*[#   6]+0.004*[#  10]
          +0.003*[#  11]+0.003*[#  12]+0.001*[#   9]
    |psi|^2 = 0.032
==== e(  21) =    25.04633 eV ==== 
     psi = 0.022*[#   6]+0.005*[#   5]+0.004*[#  11]+0.004*[#  12]+0.002*[#   9]
          +0.002*[#   7]+0.002*[#   8]
    |psi|^2 = 0.042
==== e(  22) =    26.27003 eV ==== 
     psi = 0.004*[#  10]+0.003*[#   5]+0.003*[#   6]+0.003*[#   7]+0.003*[#   8]
          +0.001*[#   9]
    |psi|^2 = 0.017
==== e(  23) =    27.54015 eV ==== 
     psi = 0.008*[#   7]+0.008*[#   8]
    |psi|^2 = 0.017
==== e(  24) =    27.80493 eV ==== 
     psi = 0.004*[#   6]+0.004*[#   7]+0.004*[#   8]+0.001*[#  11]+0.001*[#  12]
          
    |psi|^2 = 0.014
==== e(  25) =    28.68289 eV ==== 
     psi = 0.018*[#   6]+0.006*[#   7]+0.006*[#   8]+0.002*[#  10]
    |psi|^2 = 0.035
==== e(  26) =    28.76687 eV ==== 
     psi = 0.012*[#   7]+0.012*[#   8]+0.002*[#  11]+0.002*[#  12]
    |psi|^2 = 0.029
==== e(  27) =    30.01234 eV ==== 
     psi = 0.002*[#   7]+0.002*[#   8]+0.001*[#  10]
    |psi|^2 = 0.006
==== e(  28) =    32.13277 eV ==== 
     psi = 0.003*[#   6]
    |psi|^2 = 0.006
==== e(  29) =    32.31102 eV ==== 
     psi = 0.006*[#   7]+0.006*[#   8]+0.001*[#  11]+0.001*[#  12]
    |psi|^2 = 0.014
==== e(  30) =    33.10243 eV ==== 
     psi = 0.002*[#   6]
    |psi|^2 = 0.005
==== e(  31) =    34.66467 eV ==== 
     psi = 0.007*[#   7]+0.007*[#   8]
    |psi|^2 = 0.015
==== e(  32) =    34.98117 eV ==== 
     psi = 0.011*[#   6]+0.003*[#   7]+0.003*[#   8]+0.001*[#  10]
    |psi|^2 = 0.019
==== e(  33) =    36.15740 eV ==== 
     psi = 0.001*[#   6]
    |psi|^2 = 0.003

 k =   0.3535533906 -0.3535533906 -0.2121320344
==== e(   1) =   -70.42207 eV ==== 
     psi = 0.994*[#   1]+0.002*[#  10]+0.002*[#  11]+0.002*[#  12]
    |psi|^2 = 1.000
==== e(   2) =   -37.38881 eV ==== 
     psi = 0.346*[#   3]+0.346*[#   4]+0.298*[#   2]+0.002*[#   7]+0.002*[#   8]
          +0.002*[#   6]+0.001*[#   9]
    |psi|^2 = 1.000
==== e(   3) =   -37.38686 eV ==== 
     psi = 0.687*[#   2]+0.148*[#   3]+0.148*[#   4]+0.011*[#   6]+0.002*[#   7]
          +0.002*[#   8]
    |psi|^2 = 1.000
==== e(   4) =   -37.38668 eV ==== 
     psi = 0.491*[#   3]+0.491*[#   4]+0.008*[#   7]+0.008*[#   8]
    |psi|^2 = 1.000
==== e(   5) =    -7.59709 eV ==== 
     psi = 0.783*[#   9]+0.080*[#   5]+0.046*[#   7]+0.046*[#   8]+0.042*[#   6]
          
    |psi|^2 = 0.999
==== e(   6) =    -0.02514 eV ==== 
     psi = 0.230*[#  11]+0.230*[#  12]+0.195*[#  10]+0.174*[#   5]+0.064*[#   6]
          +0.049*[#   7]+0.049*[#   8]+0.007*[#   9]+0.002*[#   1]
    |psi|^2 = 0.999
==== e(   7) =     2.33905 eV ==== 
     psi = 0.613*[#  10]+0.126*[#  11]+0.126*[#  12]+0.044*[#   6]+0.027*[#   7]
          +0.027*[#   8]+0.025*[#   5]+0.005*[#   9]
    |psi|^2 = 0.993
==== e(   8) =     2.65325 eV ==== 
     psi = 0.454*[#  11]+0.454*[#  12]+0.042*[#   7]+0.042*[#   8]
    |psi|^2 = 0.993
==== e(   9) =     8.39480 eV ==== 
     psi = 0.388*[#   5]+0.150*[#   9]+0.109*[#   6]+0.077*[#   7]+0.077*[#   8]
          +0.019*[#  10]+0.011*[#  11]+0.011*[#  12]
    |psi|^2 = 0.846
==== e(  10) =     9.97975 eV ==== 
     psi = 0.291*[#   6]+0.088*[#   7]+0.088*[#   8]+0.037*[#  11]+0.037*[#  12]
          +0.023*[#  10]+0.017*[#   5]+0.006*[#   2]+0.002*[#   3]+0.002*[#   4]
          
    |psi|^2 = 0.591
==== e(  11) =    10.76510 eV ==== 
     psi = 0.248*[#   7]+0.248*[#   8]+0.019*[#  11]+0.019*[#  12]+0.005*[#   3]
          +0.005*[#   4]
    |psi|^2 = 0.543
==== e(  12) =    11.68447 eV ==== 
     psi = 0.237*[#   5]+0.098*[#   6]+0.088*[#  10]+0.078*[#   7]+0.078*[#   8]
          +0.054*[#  11]+0.054*[#  12]+0.007*[#   9]+0.002*[#   1]+0.002*[#   2]
          +0.002*[#   3]+0.002*[#   4]
    |psi|^2 = 0.701
==== e(  13) =    14.66077 eV ==== 
     psi = 0.076*[#   7]+0.076*[#   8]+0.010*[#  11]+0.010*[#  12]+0.002*[#   3]
          +0.002*[#   4]
    |psi|^2 = 0.176
==== e(  14) =    15.54595 eV ==== 
     psi = 0.019*[#   6]+0.014*[#   5]+0.009*[#   9]+0.008*[#   7]+0.008*[#   8]
          
    |psi|^2 = 0.059
==== e(  15) =    16.55823 eV ==== 
     psi = 0.035*[#   7]+0.035*[#   8]+0.017*[#  10]+0.011*[#   5]+0.009*[#   9]
          +0.006*[#   6]+0.004*[#  11]+0.004*[#  12]
    |psi|^2 = 0.123
==== e(  16) =    16.99783 eV ==== 
     psi = 0.179*[#   6]+0.020*[#   5]+0.018*[#  11]+0.018*[#  12]+0.015*[#   7]
          +0.015*[#   8]+0.009*[#   9]+0.004*[#  10]+0.003*[#   2]
    |psi|^2 = 0.285
==== e(  17) =    19.19121 eV ==== 
     psi = 0.068*[#   7]+0.068*[#   8]+0.009*[#  11]+0.009*[#  12]+0.001*[#   3]
          +0.001*[#   4]
    |psi|^2 = 0.157
==== e(  18) =    19.36983 eV ==== 
     psi = 0.043*[#   6]+0.035*[#   7]+0.035*[#   8]+0.018*[#  10]+0.017*[#   5]
          +0.012*[#   9]+0.005*[#  11]+0.005*[#  12]
    |psi|^2 = 0.172
==== e(  19) =    22.88477 eV ==== 
     psi = 0.004*[#   6]+0.003*[#   7]+0.003*[#   8]+0.002*[#  10]+0.002*[#   5]
          +0.001*[#   9]
    |psi|^2 = 0.017
==== e(  20) =    24.53337 eV ==== 
     psi = 0.009*[#   7]+0.009*[#   8]+0.008*[#   5]+0.006*[#   6]+0.005*[#  10]
          +0.004*[#  11]+0.004*[#  12]+0.002*[#   9]
    |psi|^2 = 0.047
==== e(  21) =    24.72701 eV ==== 
     psi = 0.007*[#   7]+0.007*[#   8]
    |psi|^2 = 0.015
==== e(  22) =    26.80299 eV ==== 
     psi = 0.008*[#   7]+0.008*[#   8]+0.002*[#  11]+0.002*[#  12]
    |psi|^2 = 0.019
==== e(  23) =    27.33591 eV ==== 
     psi = 0.011*[#   6]+0.003*[#  11]+0.003*[#  12]+0.002*[#   7]+0.002*[#   8]
          
    |psi|^2 = 0.024
==== e(  24) =    27.88719 eV ==== 
     psi = 0.021*[#   6]+0.005*[#   7]+0.005*[#   8]+0.002*[#   5]+0.001*[#   9]
          +0.001*[#  10]
    |psi|^2 = 0.039
==== e(  25) =    28.80442 eV ==== 
     psi = 0.003*[#   7]+0.003*[#   8]+0.002*[#  10]
    |psi|^2 = 0.010
==== e(  26) =    29.12127 eV ==== 
     psi = 0.012*[#   7]+0.012*[#   8]
    |psi|^2 = 0.025
==== e(  27) =    29.83860 eV ==== 
     psi = 0.007*[#   6]+0.001*[#  10]
    |psi|^2 = 0.011
==== e(  28) =    31.97960 eV ==== 
     psi = 0.006*[#   7]+0.006*[#   8]+0.001*[#  11]+0.001*[#  12]
    |psi|^2 = 0.015
==== e(  29) =    32.13180 eV ==== 
     psi = 0.005*[#   6]
    |psi|^2 = 0.007
==== e(  30) =    33.78903 eV ==== 
     psi = 0.002*[#   7]+0.002*[#   8]+0.002*[#   6]+0.001*[#  10]
    |psi|^2 = 0.007
==== e(  31) =    34.87840 eV ==== 
     psi = 0.010*[#   6]+0.002*[#   7]+0.002*[#   8]+0.001*[#  10]
    |psi|^2 = 0.017
==== e(  32) =    35.06288 eV ==== 
     psi = 0.005*[#   7]+0.005*[#   8]
    |psi|^2 = 0.011
==== e(  33) =    36.44965 eV ==== 
     psi = 0.002*[#   6]
    |psi|^2 = 0.003

 k =   0.2828427125 -0.2828427125 -0.1414213562
==== e(   1) =   -70.42208 eV ==== 
     psi = 0.995*[#   1]+0.001*[#  11]+0.001*[#  12]+0.001*[#  10]
    |psi|^2 = 1.000
==== e(   2) =   -37.38828 eV ==== 
     psi = 0.385*[#   3]+0.385*[#   4]+0.219*[#   2]+0.003*[#   7]+0.003*[#   8]
          +0.002*[#   6]
    |psi|^2 = 1.000
==== e(   3) =   -37.38679 eV ==== 
     psi = 0.765*[#   2]+0.109*[#   3]+0.109*[#   4]+0.012*[#   6]+0.002*[#   7]
          +0.002*[#   8]
    |psi|^2 = 1.000
==== e(   4) =   -37.38656 eV ==== 
     psi = 0.491*[#   3]+0.491*[#   4]+0.008*[#   7]+0.008*[#   8]
    |psi|^2 = 1.000
==== e(   5) =    -7.75446 eV ==== 
     psi = 0.751*[#   9]+0.129*[#   5]+0.046*[#   7]+0.046*[#   8]+0.024*[#   6]
          +0.001*[#  11]+0.001*[#  12]
    |psi|^2 = 0.999
==== e(   6) =     0.45494 eV ==== 
     psi = 0.265*[#  11]+0.265*[#  12]+0.156*[#   5]+0.148*[#  10]+0.066*[#   6]
          +0.033*[#   9]+0.032*[#   7]+0.032*[#   8]+0.002*[#   1]
    |psi|^2 = 0.997
==== e(   7) =     2.37757 eV ==== 
     psi = 0.683*[#  10]+0.093*[#  11]+0.093*[#  12]+0.033*[#   6]+0.033*[#   7]
          +0.033*[#   8]+0.021*[#   5]+0.004*[#   9]
    |psi|^2 = 0.993
==== e(   8) =     2.76977 eV ==== 
     psi = 0.464*[#  11]+0.464*[#  12]+0.033*[#   7]+0.033*[#   8]
    |psi|^2 = 0.993
==== e(   9) =     8.39956 eV ==== 
     psi = 0.398*[#   5]+0.167*[#   9]+0.089*[#   7]+0.089*[#   8]+0.080*[#   6]
          +0.029*[#  11]+0.029*[#  12]+0.006*[#  10]
    |psi|^2 = 0.888
==== e(  10) =    10.30725 eV ==== 
     psi = 0.279*[#   6]+0.100*[#   7]+0.100*[#   8]+0.046*[#  10]+0.037*[#   5]
          +0.031*[#  11]+0.031*[#  12]+0.006*[#   2]+0.002*[#   3]+0.002*[#   4]
          +0.001*[#   9]
    |psi|^2 = 0.634
==== e(  11) =    10.94683 eV ==== 
     psi = 0.256*[#   7]+0.256*[#   8]+0.015*[#  11]+0.015*[#  12]+0.005*[#   3]
          +0.005*[#   4]
    |psi|^2 = 0.553
==== e(  12) =    11.09660 eV ==== 
     psi = 0.188*[#   5]+0.140*[#   6]+0.085*[#   7]+0.085*[#   8]+0.070*[#  10]
          +0.045*[#  11]+0.045*[#  12]+0.013*[#   9]+0.002*[#   2]+0.002*[#   3]
          +0.002*[#   4]+0.001*[#   1]
    |psi|^2 = 0.678
==== e(  13) =    13.29977 eV ==== 
     psi = 0.098*[#   7]+0.098*[#   8]+0.009*[#  11]+0.009*[#  12]+0.002*[#   3]
          +0.002*[#   4]
    |psi|^2 = 0.219
==== e(  14) =    15.09743 eV ==== 
     psi = 0.130*[#   6]+0.012*[#   5]+0.009*[#  11]+0.009*[#  12]+0.003*[#   7]
          +0.003*[#   8]+0.002*[#   2]+0.002*[#  10]+0.001*[#   9]
    |psi|^2 = 0.171
==== e(  15) =    15.67416 eV ==== 
     psi = 0.017*[#   5]+0.009*[#   6]+0.008*[#   7]+0.008*[#   8]+0.007*[#   9]
          +0.006*[#  11]+0.006*[#  12]+0.002*[#  10]
    |psi|^2 = 0.063
==== e(  16) =    18.46565 eV ==== 
     psi = 0.086*[#   6]+0.033*[#   7]+0.033*[#   8]+0.011*[#  10]+0.010*[#   9]
          +0.009*[#   5]+0.005*[#  11]+0.005*[#  12]+0.002*[#   2]
    |psi|^2 = 0.197
==== e(  17) =    20.46389 eV ==== 
     psi = 0.021*[#   6]+0.017*[#   7]+0.017*[#   8]+0.009*[#  10]+0.007*[#   5]
          +0.004*[#  11]+0.004*[#  12]+0.004*[#   9]
    |psi|^2 = 0.086
==== e(  18) =    21.04140 eV ==== 
     psi = 0.014*[#   6]+0.003*[#   5]+0.002*[#   9]+0.002*[#   7]+0.002*[#   8]
          
    |psi|^2 = 0.024
==== e(  19) =    21.10507 eV ==== 
     psi = 0.040*[#   7]+0.040*[#   8]+0.005*[#  11]+0.005*[#  12]
    |psi|^2 = 0.092
==== e(  20) =    22.75298 eV ==== 
     psi = 0.021*[#   7]+0.021*[#   8]+0.017*[#   6]+0.014*[#   5]+0.010*[#  10]
          +0.004*[#  11]+0.004*[#  12]
    |psi|^2 = 0.092
==== e(  21) =    23.22714 eV ==== 
     psi = 0.009*[#   7]+0.009*[#   8]
    |psi|^2 = 0.020
==== e(  22) =    26.61007 eV ==== 
     psi = 0.006*[#   7]+0.006*[#   8]+0.002*[#   6]+0.001*[#   9]
    |psi|^2 = 0.017
==== e(  23) =    26.61889 eV ==== 
     psi = 0.018*[#   7]+0.018*[#   8]+0.002*[#  11]+0.002*[#  12]
    |psi|^2 = 0.039
==== e(  24) =    27.80358 eV ==== 
     psi = 0.020*[#   6]+0.002*[#   7]+0.002*[#   8]+0.001*[#  10]
    |psi|^2 = 0.028
==== e(  25) =    29.40570 eV ==== 
     psi = 0.011*[#   6]+0.003*[#   7]+0.003*[#   8]+0.002*[#   5]+0.002*[#  11]
          +0.002*[#  12]
    |psi|^2 = 0.024
==== e(  26) =    30.44869 eV ==== 
     psi = 0.011*[#   7]+0.011*[#   8]+0.002*[#  11]+0.002*[#  12]
    |psi|^2 = 0.026
==== e(  27) =    30.84560 eV ==== 
     psi = 0.012*[#   6]+0.002*[#   5]+0.002*[#   7]+0.002*[#   8]+0.002*[#  10]
          
    |psi|^2 = 0.024
==== e(  28) =    32.43326 eV ==== 
     psi = 0.002*[#   7]+0.002*[#   8]
    |psi|^2 = 0.004
==== e(  29) =    33.19137 eV ==== 

    |psi|^2 = 0.001
==== e(  30) =    33.99261 eV ==== 
     psi = 0.011*[#   6]+0.001*[#   7]+0.001*[#   8]
    |psi|^2 = 0.016
==== e(  31) =    35.66178 eV ==== 

    |psi|^2 = 0.001
==== e(  32) =    35.86117 eV ==== 
     psi = 0.003*[#   6]+0.002*[#   7]+0.002*[#   8]+0.001*[#  10]
    |psi|^2 = 0.009
==== e(  33) =    36.54635 eV ==== 
     psi = 0.005*[#   7]+0.005*[#   8]
    |psi|^2 = 0.011

 k =   0.2121320344 -0.2121320344 -0.0707106781
==== e(   1) =   -70.42211 eV ==== 
     psi = 0.995*[#   1]+0.001*[#  11]+0.001*[#  12]
    |psi|^2 = 1.000
==== e(   2) =   -37.38753 eV ==== 
     psi = 0.438*[#   3]+0.438*[#   4]+0.110*[#   2]+0.005*[#   7]+0.005*[#   8]
          +0.001*[#   6]+0.001*[#   5]
    |psi|^2 = 1.000
==== e(   3) =   -37.38664 eV ==== 
     psi = 0.873*[#   2]+0.055*[#   3]+0.055*[#   4]+0.014*[#   6]
    |psi|^2 = 1.000
==== e(   4) =   -37.38642 eV ==== 
     psi = 0.491*[#   3]+0.491*[#   4]+0.008*[#   7]+0.008*[#   8]
    |psi|^2 = 1.000
==== e(   5) =    -7.96488 eV ==== 
     psi = 0.713*[#   9]+0.200*[#   5]+0.036*[#   7]+0.036*[#   8]+0.009*[#   6]
          +0.002*[#  11]+0.002*[#  12]+0.001*[#   1]
    |psi|^2 = 0.999
==== e(   6) =     1.20856 eV ==== 
     psi = 0.323*[#  11]+0.323*[#  12]+0.132*[#   5]+0.078*[#  10]+0.058*[#   6]
          +0.056*[#   9]+0.011*[#   7]+0.011*[#   8]+0.002*[#   1]
    |psi|^2 = 0.995
==== e(   7) =     2.51145 eV ==== 
     psi = 0.793*[#  10]+0.047*[#  11]+0.047*[#  12]+0.035*[#   7]+0.035*[#   8]
          +0.020*[#   6]+0.013*[#   5]+0.002*[#   9]
    |psi|^2 = 0.992
==== e(   8) =     2.88898 eV ==== 
     psi = 0.474*[#  11]+0.474*[#  12]+0.022*[#   7]+0.022*[#   8]
    |psi|^2 = 0.992
==== e(   9) =     8.09473 eV ==== 
     psi = 0.446*[#   5]+0.207*[#   9]+0.067*[#   7]+0.067*[#   8]+0.056*[#  11]
          +0.056*[#  12]+0.052*[#   6]+0.001*[#  10]
    |psi|^2 = 0.954
==== e(  10) =    10.42264 eV ==== 
     psi = 0.229*[#   7]+0.229*[#   8]+0.144*[#   5]+0.091*[#  10]+0.016*[#  11]
          +0.016*[#  12]+0.015*[#   6]+0.004*[#   3]+0.004*[#   4]+0.004*[#   9]
          
    |psi|^2 = 0.752
==== e(  11) =    10.95371 eV ==== 
     psi = 0.476*[#   6]+0.032*[#  11]+0.032*[#  12]+0.011*[#   7]+0.011*[#   8]
          +0.011*[#   5]+0.009*[#   2]+0.004*[#  10]
    |psi|^2 = 0.588
==== e(  12) =    11.22264 eV ==== 
     psi = 0.326*[#   7]+0.326*[#   8]+0.015*[#  11]+0.015*[#  12]+0.006*[#   3]
          +0.006*[#   4]
    |psi|^2 = 0.693
==== e(  13) =    12.44208 eV ==== 
     psi = 0.049*[#   7]+0.049*[#   8]+0.003*[#  11]+0.003*[#  12]
    |psi|^2 = 0.107
==== e(  14) =    14.06922 eV ==== 
     psi = 0.137*[#   6]+0.016*[#   5]+0.010*[#  11]+0.010*[#  12]+0.003*[#   2]
          +0.002*[#   7]+0.002*[#   8]+0.002*[#  10]
    |psi|^2 = 0.182
==== e(  15) =    15.91268 eV ==== 
     psi = 0.009*[#   6]+0.008*[#   5]+0.005*[#   7]+0.005*[#   8]+0.003*[#   9]
          
    |psi|^2 = 0.030
==== e(  16) =    18.30101 eV ==== 
     psi = 0.030*[#   6]+0.014*[#   7]+0.014*[#   8]+0.006*[#  10]+0.004*[#   9]
          +0.002*[#   5]
    |psi|^2 = 0.072
==== e(  17) =    19.68301 eV ==== 
     psi = 0.009*[#   7]+0.009*[#   8]+0.004*[#   9]+0.003*[#   6]
    |psi|^2 = 0.026
==== e(  18) =    20.63185 eV ==== 
     psi = 0.010*[#   7]+0.010*[#   8]
    |psi|^2 = 0.023
==== e(  19) =    21.28965 eV ==== 
     psi = 0.051*[#   6]+0.008*[#   7]+0.008*[#   8]+0.006*[#   5]+0.006*[#  11]
          +0.006*[#  12]+0.001*[#  10]+0.001*[#   2]
    |psi|^2 = 0.088
==== e(  20) =    23.34498 eV ==== 
     psi = 0.038*[#   7]+0.038*[#   8]+0.028*[#   6]+0.013*[#  10]+0.009*[#   5]
          +0.003*[#  11]+0.003*[#  12]
    |psi|^2 = 0.134
==== e(  21) =    23.96573 eV ==== 
     psi = 0.025*[#   7]+0.025*[#   8]+0.003*[#  11]+0.003*[#  12]
    |psi|^2 = 0.057
==== e(  22) =    24.63889 eV ==== 
     psi = 0.011*[#   6]+0.003*[#   7]+0.003*[#   8]+0.002*[#   5]+0.002*[#   9]
          +0.001*[#  10]
    |psi|^2 = 0.023
==== e(  23) =    26.44808 eV ==== 
     psi = 0.023*[#   7]+0.023*[#   8]+0.002*[#  11]+0.002*[#  12]
    |psi|^2 = 0.050
==== e(  24) =    27.56912 eV ==== 
     psi = 0.018*[#   6]+0.002*[#   7]+0.002*[#   8]
    |psi|^2 = 0.027
==== e(  25) =    29.67347 eV ==== 
     psi = 0.006*[#   7]+0.006*[#   8]+0.005*[#   6]+0.002*[#   5]
    |psi|^2 = 0.023
==== e(  26) =    30.62725 eV ==== 
     psi = 0.013*[#   7]+0.013*[#   8]+0.002*[#  11]+0.002*[#  12]
    |psi|^2 = 0.030
==== e(  27) =    32.35055 eV ==== 
     psi = 0.023*[#   6]+0.002*[#  10]
    |psi|^2 = 0.028
==== e(  28) =    33.55554 eV ==== 
     psi = 0.004*[#   6]+0.001*[#   7]+0.001*[#   8]
    |psi|^2 = 0.009
==== e(  29) =    34.02959 eV ==== 

    |psi|^2 = 0.001
==== e(  30) =    35.00036 eV ==== 
     psi = 0.004*[#   6]+0.003*[#   7]+0.003*[#   8]
    |psi|^2 = 0.011
==== e(  31) =    35.68631 eV ==== 
     psi = 0.001*[#   7]+0.001*[#   8]
    |psi|^2 = 0.002
==== e(  32) =    37.43979 eV ==== 
     psi = 0.001*[#   7]+0.001*[#   8]
    |psi|^2 = 0.005
==== e(  33) =    37.58136 eV ==== 
     psi = 0.001*[#   7]+0.001*[#   8]
    |psi|^2 = 0.003

 k =   0.1414213562 -0.1414213562  0.0000000000
==== e(   1) =   -70.42213 eV ==== 
     psi = 0.996*[#   1]
    |psi|^2 = 1.000
==== e(   2) =   -37.38684 eV ==== 
     psi = 0.491*[#   3]+0.491*[#   4]+0.007*[#   7]+0.007*[#   8]+0.004*[#   2]
          
    |psi|^2 = 1.000
==== e(   3) =   -37.38644 eV ==== 
     psi = 0.979*[#   2]+0.016*[#   6]+0.002*[#   3]+0.002*[#   4]
    |psi|^2 = 1.000
==== e(   4) =   -37.38631 eV ==== 
     psi = 0.491*[#   3]+0.491*[#   4]+0.008*[#   7]+0.008*[#   8]
    |psi|^2 = 1.000
==== e(   5) =    -8.14455 eV ==== 
     psi = 0.684*[#   9]+0.269*[#   5]+0.020*[#   7]+0.020*[#   8]+0.002*[#   1]
          +0.001*[#   6]+0.001*[#  11]+0.001*[#  12]
    |psi|^2 = 0.999
==== e(   6) =     2.00691 eV ==== 
     psi = 0.398*[#  11]+0.398*[#  12]+0.100*[#   5]+0.055*[#   9]+0.039*[#   6]
          +0.002*[#  10]+0.001*[#   1]
    |psi|^2 = 0.992
==== e(   7) =     2.73197 eV ==== 
     psi = 0.920*[#  10]+0.025*[#   7]+0.025*[#   8]+0.015*[#   6]+0.004*[#   5]
          +0.001*[#  11]+0.001*[#  12]
    |psi|^2 = 0.991
==== e(   8) =     2.96291 eV ==== 
     psi = 0.481*[#  11]+0.481*[#  12]+0.014*[#   7]+0.014*[#   8]
    |psi|^2 = 0.990
==== e(   9) =     7.36509 eV ==== 
     psi = 0.522*[#   5]+0.249*[#   9]+0.060*[#  11]+0.060*[#  12]+0.035*[#   7]
          +0.035*[#   8]+0.020*[#   6]
    |psi|^2 = 0.982
==== e(  10) =    10.48801 eV ==== 
     psi = 0.298*[#   7]+0.298*[#   8]+0.077*[#   5]+0.044*[#  10]+0.008*[#  11]
          +0.008*[#  12]+0.005*[#   3]+0.005*[#   4]
    |psi|^2 = 0.746
==== e(  11) =    11.11240 eV ==== 
     psi = 0.376*[#   7]+0.376*[#   8]+0.012*[#  11]+0.012*[#  12]+0.007*[#   3]
          +0.007*[#   4]
    |psi|^2 = 0.789
==== e(  12) =    11.16605 eV ==== 
     psi = 0.650*[#   6]+0.021*[#  11]+0.021*[#  12]+0.013*[#  10]+0.012*[#   2]
          +0.005*[#   7]+0.005*[#   8]+0.002*[#   5]
    |psi|^2 = 0.728
==== e(  13) =    12.61536 eV ==== 
     psi = 0.009*[#   7]+0.009*[#   8]
    |psi|^2 = 0.019
==== e(  14) =    13.53257 eV ==== 
     psi = 0.044*[#   6]+0.006*[#   5]+0.005*[#   7]+0.005*[#   8]+0.001*[#  11]
          +0.001*[#  12]
    |psi|^2 = 0.066
==== e(  15) =    16.39796 eV ==== 
     psi = 0.014*[#   7]+0.014*[#   8]+0.006*[#   5]+0.001*[#   6]
    |psi|^2 = 0.037
==== e(  16) =    17.11746 eV ==== 
     psi = 0.044*[#   6]+0.003*[#   7]+0.003*[#   8]+0.003*[#  10]+0.002*[#   9]
          
    |psi|^2 = 0.058
==== e(  17) =    18.17571 eV ==== 
     psi = 0.006*[#   7]+0.006*[#   8]+0.005*[#   6]+0.003*[#   9]
    |psi|^2 = 0.021
==== e(  18) =    18.88273 eV ==== 
     psi = 0.015*[#   7]+0.015*[#   8]
    |psi|^2 = 0.031
==== e(  19) =    22.13958 eV ==== 
     psi = 0.007*[#   6]+0.007*[#   7]+0.007*[#   8]+0.002*[#   9]+0.002*[#  11]
          +0.002*[#  12]
    |psi|^2 = 0.026
==== e(  20) =    23.69056 eV ==== 
     psi = 0.033*[#   6]+0.021*[#   7]+0.021*[#   8]+0.003*[#   5]+0.003*[#  11]
          +0.003*[#  12]+0.002*[#  10]+0.001*[#   9]
    |psi|^2 = 0.089
==== e(  21) =    25.22297 eV ==== 
     psi = 0.039*[#   6]+0.019*[#   7]+0.019*[#   8]+0.008*[#  10]+0.004*[#   5]
          
    |psi|^2 = 0.091
==== e(  22) =    25.96723 eV ==== 
     psi = 0.002*[#   7]+0.002*[#   8]
    |psi|^2 = 0.005
==== e(  23) =    26.50023 eV ==== 
     psi = 0.042*[#   7]+0.042*[#   8]+0.002*[#  11]+0.002*[#  12]
    |psi|^2 = 0.090
==== e(  24) =    27.80367 eV ==== 
     psi = 0.011*[#   6]
    |psi|^2 = 0.014
==== e(  25) =    29.54757 eV ==== 
     psi = 0.013*[#   7]+0.013*[#   8]+0.002*[#   5]+0.001*[#   6]+0.001*[#  11]
          +0.001*[#  12]
    |psi|^2 = 0.035
==== e(  26) =    30.27445 eV ==== 
     psi = 0.014*[#   7]+0.014*[#   8]+0.002*[#  11]+0.002*[#  12]
    |psi|^2 = 0.032
==== e(  27) =    31.02170 eV ==== 
     psi = 0.033*[#   6]+0.003*[#  10]
    |psi|^2 = 0.040
==== e(  28) =    34.57396 eV ==== 

    |psi|^2 = 0.000
==== e(  29) =    35.21989 eV ==== 
     psi = 0.002*[#   7]+0.002*[#   8]
    |psi|^2 = 0.004
==== e(  30) =    35.39507 eV ==== 
     psi = 0.005*[#   6]
    |psi|^2 = 0.006
==== e(  31) =    36.26612 eV ==== 
     psi = 0.004*[#   6]+0.001*[#   7]+0.001*[#   8]
    |psi|^2 = 0.009
==== e(  32) =    37.87241 eV ==== 
     psi = 0.002*[#   7]+0.002*[#   8]
    |psi|^2 = 0.005
==== e(  33) =    38.27554 eV ==== 

    |psi|^2 = 0.000

 k =   0.0000000000  0.0000000000  0.2828427125
==== e(   1) =   -70.42211 eV ==== 
     psi = 0.995*[#   1]+0.002*[#  10]+0.001*[#   6]
    |psi|^2 = 1.000
==== e(   2) =   -37.38720 eV ==== 
     psi = 0.987*[#   2]+0.011*[#   6]+0.001*[#   5]
    |psi|^2 = 1.000
==== e(   3) =   -37.38660 eV ==== 
     psi = 0.869*[#   4]+0.113*[#   3]+0.014*[#   8]+0.002*[#   7]+0.001*[#  11]
          
    |psi|^2 = 1.000
==== e(   4) =   -37.38660 eV ==== 
     psi = 0.869*[#   3]+0.113*[#   4]+0.014*[#   7]+0.002*[#   8]+0.001*[#  12]
          
    |psi|^2 = 1.000
==== e(   5) =    -8.00444 eV ==== 
     psi = 0.706*[#   9]+0.213*[#   5]+0.075*[#   6]+0.004*[#  10]+0.002*[#   1]
          
    |psi|^2 = 0.999
==== e(   6) =     1.62193 eV ==== 
     psi = 0.772*[#  10]+0.148*[#   5]+0.070*[#   9]+0.002*[#   1]
    |psi|^2 = 0.993
==== e(   7) =     2.57681 eV ==== 
     psi = 0.605*[#  12]+0.288*[#  11]+0.051*[#   7]+0.049*[#   8]
    |psi|^2 = 0.993
==== e(   8) =     2.57681 eV ==== 
     psi = 0.605*[#  11]+0.288*[#  12]+0.051*[#   8]+0.049*[#   7]
    |psi|^2 = 0.993
==== e(   9) =     7.93374 eV ==== 
     psi = 0.334*[#   5]+0.254*[#   6]+0.201*[#   9]+0.143*[#  10]+0.002*[#   2]
          
    |psi|^2 = 0.933
==== e(  10) =     9.74510 eV ==== 
     psi = 0.457*[#   6]+0.201*[#   5]+0.051*[#  10]+0.008*[#   2]
    |psi|^2 = 0.719
==== e(  11) =    11.35709 eV ==== 
     psi = 0.078*[#   5]+0.023*[#   6]+0.015*[#  10]+0.010*[#   9]
    |psi|^2 = 0.127
==== e(  12) =    11.87491 eV ==== 
     psi = 0.658*[#   7]+0.066*[#  12]+0.013*[#  11]+0.013*[#   3]+0.007*[#   8]
          
    |psi|^2 = 0.758
==== e(  13) =    11.87491 eV ==== 
     psi = 0.658*[#   8]+0.066*[#  11]+0.013*[#  12]+0.013*[#   4]+0.007*[#   7]
          
    |psi|^2 = 0.758
==== e(  14) =    14.37516 eV ==== 

    |psi|^2 = 0.000
==== e(  15) =    17.86905 eV ==== 
     psi = 0.024*[#   7]+0.012*[#   8]+0.003*[#  11]
    |psi|^2 = 0.040
==== e(  16) =    17.86905 eV ==== 
     psi = 0.024*[#   8]+0.012*[#   7]+0.003*[#  12]
    |psi|^2 = 0.040
==== e(  17) =    18.02079 eV ==== 
     psi = 0.004*[#   6]+0.003*[#   5]
    |psi|^2 = 0.007
==== e(  18) =    18.96889 eV ==== 
     psi = 0.038*[#   6]+0.007*[#   9]
    |psi|^2 = 0.046
==== e(  19) =    23.20993 eV ==== 
     psi = 0.076*[#   7]+0.028*[#   8]+0.010*[#  12]+0.004*[#  11]+0.002*[#   3]
          
    |psi|^2 = 0.121
==== e(  20) =    23.20993 eV ==== 
     psi = 0.076*[#   8]+0.028*[#   7]+0.010*[#  11]+0.004*[#  12]+0.002*[#   4]
          
    |psi|^2 = 0.121
==== e(  21) =    24.09810 eV ==== 
     psi = 0.005*[#  10]+0.002*[#   6]
    |psi|^2 = 0.008
==== e(  22) =    24.83746 eV ==== 
     psi = 0.076*[#   6]+0.009*[#   5]+0.005*[#  10]+0.003*[#   9]+0.001*[#   2]
          
    |psi|^2 = 0.094
==== e(  23) =    25.02034 eV ==== 

    |psi|^2 = 0.000
==== e(  24) =    27.71807 eV ==== 
     psi = 0.025*[#   6]+0.007*[#   5]
    |psi|^2 = 0.032
==== e(  25) =    30.64628 eV ==== 
     psi = 0.016*[#   8]+0.013*[#   7]+0.003*[#  11]+0.002*[#  12]
    |psi|^2 = 0.034
==== e(  26) =    30.64628 eV ==== 
     psi = 0.016*[#   7]+0.013*[#   8]+0.003*[#  12]+0.002*[#  11]
    |psi|^2 = 0.034
==== e(  27) =    30.71607 eV ==== 
     psi = 0.002*[#   6]
    |psi|^2 = 0.002
==== e(  28) =    34.92225 eV ==== 
     psi = 0.013*[#   8]+0.004*[#   7]+0.001*[#  11]
    |psi|^2 = 0.019
==== e(  29) =    34.92225 eV ==== 
     psi = 0.013*[#   7]+0.004*[#   8]+0.001*[#  12]
    |psi|^2 = 0.019
==== e(  30) =    35.06412 eV ==== 

    |psi|^2 = 0.001
==== e(  31) =    36.26165 eV ==== 

    |psi|^2 = 0.000
==== e(  32) =    36.68275 eV ==== 
     psi = 0.004*[#   6]+0.001*[#   5]
    |psi|^2 = 0.006
==== e(  33) =    37.74841 eV ==== 

    |psi|^2 = 0.002

 k =  -0.0707106781  0.0707106781  0.3535533906
==== e(   1) =   -70.42209 eV ==== 
     psi = 0.995*[#   1]+0.003*[#  10]+0.001*[#   6]
    |psi|^2 = 1.000
==== e(   2) =   -37.38774 eV ==== 
     psi = 0.848*[#   2]+0.070*[#   3]+0.070*[#   4]+0.008*[#   6]+0.001*[#   5]
          
    |psi|^2 = 1.000
==== e(   3) =   -37.38676 eV ==== 
     psi = 0.422*[#   3]+0.422*[#   4]+0.139*[#   2]+0.007*[#   7]+0.007*[#   8]
          +0.002*[#   6]
    |psi|^2 = 1.000
==== e(   4) =   -37.38675 eV ==== 
     psi = 0.491*[#   3]+0.491*[#   4]+0.008*[#   7]+0.008*[#   8]
    |psi|^2 = 1.000
==== e(   5) =    -7.84066 eV ==== 
     psi = 0.734*[#   9]+0.154*[#   5]+0.097*[#   6]+0.004*[#   7]+0.004*[#   8]
          +0.004*[#  10]+0.001*[#   1]
    |psi|^2 = 0.999
==== e(   6) =     1.06527 eV ==== 
     psi = 0.631*[#  10]+0.164*[#   5]+0.060*[#   9]+0.051*[#  11]+0.051*[#  12]
          +0.016*[#   7]+0.016*[#   8]+0.002*[#   1]+0.001*[#   6]
    |psi|^2 = 0.995
==== e(   7) =     2.39932 eV ==== 
     psi = 0.369*[#  11]+0.369*[#  12]+0.130*[#  10]+0.048*[#   7]+0.048*[#   8]
          +0.015*[#   6]+0.013*[#   5]+0.002*[#   9]
    |psi|^2 = 0.994
==== e(   8) =     2.43411 eV ==== 
     psi = 0.435*[#  11]+0.435*[#  12]+0.062*[#   7]+0.062*[#   8]
    |psi|^2 = 0.994
==== e(   9) =     8.17785 eV ==== 
     psi = 0.413*[#   6]+0.167*[#   5]+0.155*[#   9]+0.091*[#  10]+0.005*[#  11]
          +0.005*[#  12]+0.004*[#   2]+0.002*[#   7]+0.002*[#   8]
    |psi|^2 = 0.844
==== e(  10) =     9.59845 eV ==== 
     psi = 0.296*[#   5]+0.266*[#   6]+0.071*[#  10]+0.012*[#  11]+0.012*[#  12]
          +0.005*[#   2]+0.002*[#   9]+0.001*[#   1]+0.001*[#   7]+0.001*[#   8]
          
    |psi|^2 = 0.669
==== e(  11) =    10.92389 eV ==== 
     psi = 0.123*[#   5]+0.091*[#   7]+0.091*[#   8]+0.029*[#  10]+0.026*[#   9]
          +0.011*[#   6]+0.009*[#  11]+0.009*[#  12]+0.002*[#   3]+0.002*[#   4]
          
    |psi|^2 = 0.393
==== e(  12) =    12.14406 eV ==== 
     psi = 0.295*[#   7]+0.295*[#   8]+0.044*[#  11]+0.044*[#  12]+0.006*[#   3]
          +0.006*[#   4]
    |psi|^2 = 0.690
==== e(  13) =    12.76499 eV ==== 
     psi = 0.219*[#   7]+0.219*[#   8]+0.047*[#   5]+0.034*[#  11]+0.034*[#  12]
          +0.026*[#  10]+0.009*[#   6]+0.004*[#   3]+0.004*[#   4]+0.002*[#   9]
          
    |psi|^2 = 0.599
==== e(  14) =    14.80547 eV ==== 
     psi = 0.020*[#   7]+0.020*[#   8]+0.003*[#  11]+0.003*[#  12]
    |psi|^2 = 0.046
==== e(  15) =    17.20645 eV ==== 
     psi = 0.007*[#   6]+0.005*[#   7]+0.005*[#   8]+0.003*[#   9]+0.002*[#   5]
          
    |psi|^2 = 0.024
==== e(  16) =    18.69084 eV ==== 
     psi = 0.019*[#   7]+0.019*[#   8]+0.004*[#  11]+0.004*[#  12]
    |psi|^2 = 0.047
==== e(  17) =    19.48862 eV ==== 
     psi = 0.024*[#   6]+0.016*[#   7]+0.016*[#   8]+0.004*[#   9]+0.004*[#   5]
          +0.003*[#  11]+0.003*[#  12]
    |psi|^2 = 0.073
==== e(  18) =    20.28649 eV ==== 
     psi = 0.025*[#   6]+0.005*[#   9]
    |psi|^2 = 0.032
==== e(  19) =    21.63041 eV ==== 
     psi = 0.046*[#   7]+0.046*[#   8]+0.006*[#  11]+0.006*[#  12]
    |psi|^2 = 0.106
==== e(  20) =    21.83289 eV ==== 
     psi = 0.036*[#   7]+0.036*[#   8]+0.007*[#   5]+0.005*[#   6]+0.005*[#  11]
          +0.005*[#  12]+0.004*[#  10]
    |psi|^2 = 0.100
==== e(  21) =    24.19951 eV ==== 
     psi = 0.038*[#   6]+0.018*[#   7]+0.018*[#   8]+0.007*[#   5]+0.007*[#  10]
          +0.003*[#  11]+0.003*[#  12]
    |psi|^2 = 0.095
==== e(  22) =    24.68506 eV ==== 
     psi = 0.012*[#   7]+0.012*[#   8]+0.002*[#  11]+0.002*[#  12]
    |psi|^2 = 0.027
==== e(  23) =    25.69036 eV ==== 
     psi = 0.039*[#   6]+0.004*[#   5]+0.002*[#   9]
    |psi|^2 = 0.047
==== e(  24) =    27.45014 eV ==== 
     psi = 0.005*[#   5]+0.005*[#   6]
    |psi|^2 = 0.013
==== e(  25) =    30.15601 eV ==== 
     psi = 0.002*[#   6]
    |psi|^2 = 0.004
==== e(  26) =    30.74891 eV ==== 
     psi = 0.011*[#   7]+0.011*[#   8]+0.003*[#  11]+0.003*[#  12]
    |psi|^2 = 0.028
==== e(  27) =    31.31037 eV ==== 
     psi = 0.008*[#   7]+0.008*[#   8]+0.002*[#  11]+0.002*[#  12]
    |psi|^2 = 0.022
==== e(  28) =    33.38767 eV ==== 
     psi = 0.007*[#   7]+0.007*[#   8]+0.001*[#   6]
[...]
==== e(  20) =    22.20019 eV ==== 
     psi = 0.024*[#   7]+0.016*[#  12]+0.015*[#   5]+0.012*[#   6]+0.001*[#  10]
          
    |psi|^2 = 0.071
==== e(  21) =    23.98157 eV ==== 
     psi = 0.017*[#   6]+0.007*[#   9]+0.006*[#   8]+0.004*[#   5]+0.001*[#  12]
          +0.001*[#  11]
    |psi|^2 = 0.037
==== e(  22) =    25.33452 eV ==== 
     psi = 0.006*[#   6]+0.005*[#   7]+0.003*[#  12]+0.001*[#  10]
    |psi|^2 = 0.017
==== e(  23) =    26.53248 eV ==== 
     psi = 0.004*[#   6]+0.001*[#   7]+0.001*[#  12]
    |psi|^2 = 0.007
==== e(  24) =    27.14242 eV ==== 
     psi = 0.022*[#   7]+0.003*[#   9]+0.002*[#   5]+0.002*[#  12]+0.001*[#   6]
          +0.001*[#  11]
    |psi|^2 = 0.033
==== e(  25) =    28.12331 eV ==== 
     psi = 0.023*[#   8]+0.005*[#  11]+0.004*[#   6]+0.004*[#   7]+0.004*[#  10]
          +0.002*[#  12]
    |psi|^2 = 0.043
==== e(  26) =    29.77232 eV ==== 
     psi = 0.009*[#   6]+0.003*[#   8]+0.001*[#   7]+0.001*[#  12]
    |psi|^2 = 0.016
==== e(  27) =    30.50303 eV ==== 
     psi = 0.001*[#   8]
    |psi|^2 = 0.004
==== e(  28) =    30.94124 eV ==== 

    |psi|^2 = 0.002
==== e(  29) =    32.06313 eV ==== 
     psi = 0.008*[#   8]+0.001*[#   7]+0.001*[#  11]
    |psi|^2 = 0.012
==== e(  30) =    32.70984 eV ==== 
     psi = 0.009*[#   8]+0.002*[#  10]+0.001*[#  11]
    |psi|^2 = 0.013
==== e(  31) =    33.60951 eV ==== 
     psi = 0.002*[#   8]
    |psi|^2 = 0.004
==== e(  32) =    35.18208 eV ==== 
     psi = 0.006*[#   7]+0.004*[#   8]
    |psi|^2 = 0.012
==== e(  33) =    36.21494 eV ==== 

    |psi|^2 = 0.001

 k =   0.0000000000  0.1414213562 -0.7071067812
==== e(   1) =   -70.42204 eV ==== 
     psi = 0.992*[#   1]+0.006*[#  10]+0.001*[#   5]
    |psi|^2 = 1.000
==== e(   2) =   -37.38884 eV ==== 
     psi = 0.977*[#   2]+0.015*[#   3]+0.006*[#   6]+0.002*[#   9]
    |psi|^2 = 1.000
==== e(   3) =   -37.38742 eV ==== 
     psi = 0.968*[#   3]+0.015*[#   2]+0.013*[#   7]+0.003*[#  12]
    |psi|^2 = 1.000
==== e(   4) =   -37.38729 eV ==== 
     psi = 0.982*[#   4]+0.014*[#   8]+0.003*[#  11]
    |psi|^2 = 1.000
==== e(   5) =    -7.35979 eV ==== 
     psi = 0.830*[#   9]+0.151*[#   6]+0.017*[#   7]
    |psi|^2 = 0.998
==== e(   6) =     0.24554 eV ==== 
     psi = 0.747*[#  10]+0.232*[#   5]+0.010*[#   8]+0.005*[#  11]+0.002*[#   1]
          
    |psi|^2 = 0.998
==== e(   7) =     1.71278 eV ==== 
     psi = 0.776*[#  11]+0.191*[#   8]+0.019*[#   5]+0.010*[#  10]
    |psi|^2 = 0.996
==== e(   8) =     1.82392 eV ==== 
     psi = 0.760*[#  12]+0.194*[#   7]+0.043*[#   6]
    |psi|^2 = 0.997
==== e(   9) =     7.15722 eV ==== 
     psi = 0.593*[#   6]+0.093*[#   9]+0.059*[#  12]+0.006*[#   2]+0.005*[#   7]
          
    |psi|^2 = 0.756
==== e(  10) =     9.00342 eV ==== 
     psi = 0.325*[#   5]+0.084*[#  10]+0.023*[#  11]+0.002*[#   1]
    |psi|^2 = 0.435
==== e(  11) =    13.29553 eV ==== 
     psi = 0.344*[#   5]+0.112*[#  10]+0.010*[#  11]+0.003*[#   1]
    |psi|^2 = 0.468
==== e(  12) =    13.59173 eV ==== 
     psi = 0.475*[#   7]+0.095*[#  12]+0.031*[#   6]+0.031*[#   9]+0.010*[#   3]
          
    |psi|^2 = 0.641
==== e(  13) =    15.30483 eV ==== 
     psi = 0.625*[#   8]+0.153*[#  11]+0.014*[#   4]+0.008*[#  10]+0.004*[#   5]
          
    |psi|^2 = 0.804
==== e(  14) =    16.68299 eV ==== 
     psi = 0.083*[#   7]+0.032*[#  12]+0.005*[#   6]+0.002*[#   3]
    |psi|^2 = 0.121
==== e(  15) =    16.76617 eV ==== 
     psi = 0.054*[#   5]+0.047*[#   8]+0.024*[#  10]+0.005*[#  11]+0.001*[#   4]
          
    |psi|^2 = 0.132
==== e(  16) =    17.57372 eV ==== 
     psi = 0.071*[#   7]+0.036*[#   6]+0.017*[#   9]+0.008*[#  12]+0.001*[#   3]
          
    |psi|^2 = 0.133
==== e(  17) =    19.83408 eV ==== 
     psi = 0.100*[#   6]+0.025*[#   7]+0.019*[#   9]+0.018*[#  12]+0.001*[#   2]
          
    |psi|^2 = 0.163
==== e(  18) =    20.39640 eV ==== 
     psi = 0.002*[#  11]+0.001*[#   5]+0.001*[#   8]
    |psi|^2 = 0.005
==== e(  19) =    21.43709 eV ==== 
     psi = 0.014*[#   7]+0.005*[#  12]
    |psi|^2 = 0.019
==== e(  20) =    23.08764 eV ==== 
     psi = 0.005*[#   5]+0.001*[#  10]
    |psi|^2 = 0.006
==== e(  21) =    24.44797 eV ==== 
     psi = 0.007*[#   6]+0.004*[#   7]+0.002*[#   9]
    |psi|^2 = 0.013
==== e(  22) =    25.39749 eV ==== 
     psi = 0.029*[#   8]+0.006*[#  11]+0.004*[#   5]
    |psi|^2 = 0.039
==== e(  23) =    26.17451 eV ==== 
     psi = 0.038*[#   7]+0.008*[#  12]+0.002*[#   9]
    |psi|^2 = 0.049
==== e(  24) =    26.76077 eV ==== 
     psi = 0.005*[#   5]+0.001*[#  11]
    |psi|^2 = 0.007
==== e(  25) =    27.07067 eV ==== 
     psi = 0.004*[#   5]+0.003*[#   8]+0.002*[#  10]
    |psi|^2 = 0.010
==== e(  26) =    28.00594 eV ==== 
     psi = 0.012*[#   6]+0.004*[#   7]+0.002*[#   9]+0.001*[#  12]
    |psi|^2 = 0.020
==== e(  27) =    29.76139 eV ==== 
     psi = 0.027*[#   8]+0.005*[#  11]+0.003*[#  10]
    |psi|^2 = 0.036
==== e(  28) =    30.26334 eV ==== 
     psi = 0.012*[#   7]+0.004*[#  12]+0.003*[#   6]
    |psi|^2 = 0.020
==== e(  29) =    33.33761 eV ==== 
     psi = 0.001*[#   7]
    |psi|^2 = 0.003
==== e(  30) =    33.89851 eV ==== 
     psi = 0.012*[#   8]+0.004*[#  11]
    |psi|^2 = 0.016
==== e(  31) =    35.15144 eV ==== 

    |psi|^2 = 0.001
==== e(  32) =    35.52453 eV ==== 
     psi = 0.011*[#   7]+0.002*[#  12]
    |psi|^2 = 0.014
==== e(  33) =    36.69940 eV ==== 
     psi = 0.005*[#   8]+0.001*[#  11]
    |psi|^2 = 0.006

 k =   0.7071067812 -0.4242640687 -0.1414213562
==== e(   1) =   -70.42205 eV ==== 
     psi = 0.992*[#   1]+0.004*[#  10]+0.002*[#  11]+0.001*[#   5]
    |psi|^2 = 1.000
==== e(   2) =   -37.38849 eV ==== 
     psi = 0.770*[#   2]+0.110*[#   3]+0.109*[#   4]+0.006*[#   6]+0.002*[#   9]
          +0.001*[#   7]
    |psi|^2 = 1.000
==== e(   3) =   -37.38766 eV ==== 
     psi = 0.872*[#   3]+0.082*[#   2]+0.031*[#   4]+0.010*[#   7]+0.003*[#  12]
          
    |psi|^2 = 1.000
==== e(   4) =   -37.38711 eV ==== 
     psi = 0.842*[#   4]+0.137*[#   2]+0.013*[#   8]+0.004*[#   3]+0.002*[#   6]
          +0.001*[#  11]+0.001*[#  10]
    |psi|^2 = 1.000
==== e(   5) =    -7.41990 eV ==== 
     psi = 0.813*[#   9]+0.105*[#   6]+0.053*[#   7]+0.020*[#   5]+0.007*[#   8]
          
    |psi|^2 = 0.999
==== e(   6) =     0.48455 eV ==== 
     psi = 0.563*[#  10]+0.206*[#   5]+0.104*[#  12]+0.045*[#   7]+0.039*[#  11]
          +0.019*[#   8]+0.011*[#   6]+0.009*[#   9]+0.002*[#   1]
    |psi|^2 = 0.997
==== e(   7) =     1.31710 eV ==== 
     psi = 0.722*[#  11]+0.146*[#   8]+0.046*[#   5]+0.029*[#  10]+0.021*[#  12]
          +0.020*[#   6]+0.010*[#   7]
    |psi|^2 = 0.995
==== e(   8) =     1.96977 eV ==== 
     psi = 0.610*[#  12]+0.166*[#  10]+0.101*[#   7]+0.080*[#   6]+0.026*[#   8]
          +0.006*[#  11]+0.006*[#   5]
    |psi|^2 = 0.995
==== e(   9) =     8.39102 eV ==== 
     psi = 0.396*[#   6]+0.159*[#  12]+0.089*[#   7]+0.022*[#   9]+0.006*[#   2]
          +0.005*[#  11]+0.004*[#  10]+0.002*[#   3]+0.002*[#   8]
    |psi|^2 = 0.685
==== e(  10) =    10.27998 eV ==== 
     psi = 0.387*[#   5]+0.078*[#  11]+0.072*[#  10]+0.013*[#   6]+0.003*[#   1]
          +0.003*[#   9]
    |psi|^2 = 0.557
==== e(  11) =    10.62460 eV ==== 
     psi = 0.267*[#   7]+0.107*[#   6]+0.103*[#   5]+0.082*[#   9]+0.020*[#  10]
          +0.007*[#  11]+0.006*[#  12]+0.004*[#   3]+0.002*[#   8]+0.001*[#   2]
          
    |psi|^2 = 0.599
==== e(  12) =    12.71725 eV ==== 
     psi = 0.131*[#   5]+0.117*[#   7]+0.077*[#  10]+0.061*[#   8]+0.044*[#   6]
          +0.011*[#  12]+0.008*[#   9]+0.002*[#   3]+0.001*[#   4]+0.001*[#   1]
          
    |psi|^2 = 0.455
==== e(  13) =    14.46344 eV ==== 
     psi = 0.425*[#   8]+0.084*[#  11]+0.050*[#   7]+0.021*[#  12]+0.020*[#   5]
          +0.011*[#  10]+0.009*[#   4]+0.005*[#   9]+0.004*[#   6]
    |psi|^2 = 0.632
==== e(  14) =    15.65224 eV ==== 
     psi = 0.090*[#   8]+0.049*[#   6]+0.032*[#   7]+0.030*[#   9]+0.016*[#  10]
          +0.012*[#   5]+0.008*[#  11]+0.002*[#   4]
    |psi|^2 = 0.241
==== e(  15) =    18.02230 eV ==== 
     psi = 0.082*[#   8]+0.045*[#   7]+0.024*[#  11]+0.014*[#  12]+0.010*[#   5]
          +0.004*[#  10]+0.002*[#   6]+0.002*[#   4]
    |psi|^2 = 0.186
==== e(  16) =    18.42401 eV ==== 
     psi = 0.058*[#   7]+0.025*[#   5]+0.015*[#   6]+0.013*[#  10]+0.010*[#   8]
          +0.007*[#   9]+0.003*[#  12]+0.001*[#   3]
    |psi|^2 = 0.133
==== e(  17) =    19.51015 eV ==== 
     psi = 0.019*[#   7]+0.006*[#  12]+0.004*[#   8]+0.004*[#   5]+0.003*[#  10]
          +0.002*[#   6]
    |psi|^2 = 0.040
==== e(  18) =    20.73989 eV ==== 
     psi = 0.065*[#   6]+0.010*[#  12]+0.008*[#   8]+0.006*[#   9]+0.002*[#   7]
          +0.002*[#  10]+0.002*[#   5]+0.001*[#   2]
    |psi|^2 = 0.098
==== e(  19) =    21.97879 eV ==== 
     psi = 0.014*[#   6]+0.007*[#   5]+0.004*[#   8]+0.003*[#   9]+0.002*[#  12]
          +0.001*[#   7]
    |psi|^2 = 0.032
==== e(  20) =    23.29629 eV ==== 
     psi = 0.008*[#   7]+0.004*[#   5]+0.004*[#  12]+0.001*[#  11]
    |psi|^2 = 0.016
==== e(  21) =    24.12175 eV ==== 
     psi = 0.021*[#   7]+0.020*[#   6]+0.010*[#  12]+0.007*[#   8]+0.004*[#   5]
          +0.001*[#  10]
    |psi|^2 = 0.066
==== e(  22) =    25.18915 eV ==== 
     psi = 0.010*[#   6]+0.009*[#   8]+0.008*[#   5]+0.005*[#  11]+0.002*[#   7]
          +0.001*[#  12]+0.001*[#   9]
    |psi|^2 = 0.037
==== e(  23) =    26.02551 eV ==== 
     psi = 0.010*[#   7]+0.003*[#   8]+0.003*[#  12]+0.002*[#   9]
    |psi|^2 = 0.018
==== e(  24) =    27.03485 eV ==== 
     psi = 0.018*[#   7]+0.002*[#  12]+0.002*[#  10]+0.001*[#   9]
    |psi|^2 = 0.024
==== e(  25) =    27.31533 eV ==== 
     psi = 0.009*[#   8]+0.008*[#   6]+0.003*[#  11]+0.002*[#   7]+0.001*[#  12]
          +0.001*[#  10]
    |psi|^2 = 0.025
==== e(  26) =    29.38483 eV ==== 
     psi = 0.004*[#   7]+0.002*[#   8]+0.002*[#  10]
    |psi|^2 = 0.010
==== e(  27) =    31.57062 eV ==== 
     psi = 0.021*[#   8]+0.004*[#  11]+0.003*[#   6]+0.002*[#  10]
    |psi|^2 = 0.031
==== e(  28) =    32.11388 eV ==== 
     psi = 0.003*[#   7]+0.002*[#   6]
    |psi|^2 = 0.006
==== e(  29) =    32.70415 eV ==== 
     psi = 0.002*[#   7]+0.001*[#   6]
    |psi|^2 = 0.004
==== e(  30) =    32.84955 eV ==== 
     psi = 0.008*[#   8]+0.001*[#  10]+0.001*[#  11]
    |psi|^2 = 0.011
==== e(  31) =    33.39467 eV ==== 
     psi = 0.003*[#   7]
    |psi|^2 = 0.006
==== e(  32) =    34.76479 eV ==== 
     psi = 0.001*[#   8]
    |psi|^2 = 0.001
==== e(  33) =    36.46855 eV ==== 
     psi = 0.010*[#   8]+0.002*[#   6]
    |psi|^2 = 0.014

 k =   0.6363961031 -0.3535533906 -0.0707106781
==== e(   1) =   -70.42204 eV ==== 
     psi = 0.992*[#   1]+0.003*[#  10]+0.003*[#  11]+0.001*[#   5]
    |psi|^2 = 1.000
==== e(   2) =   -37.38844 eV ==== 
     psi = 0.460*[#   2]+0.460*[#   3]+0.070*[#   4]+0.004*[#   6]+0.004*[#   7]
          +0.002*[#   9]
    |psi|^2 = 1.000
==== e(   3) =   -37.38781 eV ==== 
     psi = 0.468*[#   2]+0.468*[#   3]+0.051*[#   4]+0.005*[#   6]+0.005*[#   7]
          +0.003*[#  12]
    |psi|^2 = 1.000
==== e(   4) =   -37.38718 eV ==== 
     psi = 0.862*[#   4]+0.060*[#   2]+0.060*[#   3]+0.013*[#   8]+0.001*[#  10]
          +0.001*[#  11]
    |psi|^2 = 1.000
==== e(   5) =    -7.37792 eV ==== 
     psi = 0.821*[#   9]+0.083*[#   6]+0.083*[#   7]+0.008*[#   5]+0.005*[#   8]
          
    |psi|^2 = 0.999
==== e(   6) =     0.57438 eV ==== 
     psi = 0.312*[#  10]+0.312*[#  11]+0.232*[#   5]+0.081*[#  12]+0.020*[#   6]
          +0.020*[#   7]+0.017*[#   8]+0.002*[#   1]
    |psi|^2 = 0.998
==== e(   7) =     1.11513 eV ==== 
     psi = 0.366*[#  10]+0.366*[#  11]+0.152*[#   8]+0.039*[#  12]+0.030*[#   5]
          +0.019*[#   6]+0.019*[#   7]+0.002*[#   9]
    |psi|^2 = 0.995
==== e(   8) =     1.84756 eV ==== 
     psi = 0.598*[#  12]+0.101*[#   6]+0.101*[#   7]+0.081*[#  10]+0.081*[#  11]
          +0.029*[#   8]+0.005*[#   5]
    |psi|^2 = 0.996
==== e(   9) =     8.45596 eV ==== 
     psi = 0.232*[#   6]+0.232*[#   7]+0.191*[#  12]+0.004*[#   2]+0.004*[#   3]
          +0.003*[#  10]+0.003*[#  11]+0.003*[#   8]+0.002*[#   5]
    |psi|^2 = 0.674
==== e(  10) =    10.39680 eV ==== 
     psi = 0.272*[#   5]+0.112*[#   6]+0.112*[#   7]+0.063*[#   9]+0.044*[#  10]
          +0.044*[#  11]+0.002*[#   1]+0.001*[#   2]+0.001*[#   3]
    |psi|^2 = 0.654
==== e(  11) =    11.10618 eV ==== 
     psi = 0.275*[#   5]+0.057*[#  10]+0.057*[#  11]+0.021*[#   6]+0.021*[#   7]
          +0.006*[#  12]+0.002*[#   1]+0.002*[#   9]
    |psi|^2 = 0.442
==== e(  12) =    11.95913 eV ==== 
     psi = 0.162*[#   6]+0.162*[#   7]+0.062*[#   5]+0.049*[#   9]+0.021*[#  10]
          +0.021*[#  11]+0.014*[#   8]+0.002*[#   2]+0.002*[#   3]
    |psi|^2 = 0.496
==== e(  13) =    14.72058 eV ==== 
     psi = 0.444*[#   8]+0.049*[#  10]+0.049*[#  11]+0.028*[#   6]+0.028*[#   7]
          +0.018*[#   9]+0.010*[#   4]+0.010*[#  12]+0.005*[#   5]
    |psi|^2 = 0.641
==== e(  14) =    16.09906 eV ==== 
     psi = 0.176*[#   8]+0.049*[#   5]+0.031*[#  10]+0.031*[#  11]+0.004*[#   4]
          +0.004*[#   6]+0.004*[#   7]+0.003*[#  12]
    |psi|^2 = 0.302
==== e(  15) =    17.12508 eV ==== 
     psi = 0.043*[#   6]+0.043*[#   7]+0.015*[#   9]+0.015*[#  12]+0.009*[#   5]
          +0.003*[#   8]+0.002*[#  10]+0.002*[#  11]
    |psi|^2 = 0.132
==== e(  16) =    18.94290 eV ==== 
     psi = 0.047*[#   6]+0.047*[#   7]+0.046*[#   8]+0.018*[#   5]+0.013*[#   9]
          +0.011*[#  10]+0.011*[#  11]+0.002*[#  12]+0.001*[#   4]
    |psi|^2 = 0.196
==== e(  17) =    19.88074 eV ==== 
     psi = 0.004*[#   5]+0.003*[#   8]+0.001*[#  10]+0.001*[#  11]
    |psi|^2 = 0.010
==== e(  18) =    20.92428 eV ==== 
     psi = 0.026*[#   6]+0.026*[#   7]+0.014*[#  12]
    |psi|^2 = 0.069
==== e(  19) =    22.48686 eV ==== 
     psi = 0.013*[#   6]+0.013*[#   7]+0.012*[#   5]+0.011*[#  12]+0.001*[#   8]
          
    |psi|^2 = 0.053
==== e(  20) =    23.17759 eV ==== 
     psi = 0.008*[#   6]+0.008*[#   7]+0.003*[#   8]+0.003*[#   9]+0.002*[#   5]
          +0.002*[#  12]+0.001*[#  10]+0.001*[#  11]
    |psi|^2 = 0.030
==== e(  21) =    23.93410 eV ==== 
     psi = 0.018*[#   6]+0.018*[#   7]+0.009*[#  12]+0.002*[#   5]
    |psi|^2 = 0.049
==== e(  22) =    24.65217 eV ==== 
     psi = 0.009*[#   6]+0.009*[#   7]+0.007*[#   5]+0.005*[#  12]+0.002*[#   8]
          +0.001*[#  10]+0.001*[#  11]
    |psi|^2 = 0.034
==== e(  23) =    25.59331 eV ==== 
     psi = 0.002*[#   8]+0.002*[#   9]
    |psi|^2 = 0.006
==== e(  24) =    26.54783 eV ==== 
     psi = 0.010*[#   6]+0.010*[#   7]+0.004*[#   9]+0.002*[#   5]
    |psi|^2 = 0.028
==== e(  25) =    28.63286 eV ==== 
     psi = 0.023*[#   8]+0.005*[#  10]+0.005*[#  11]+0.003*[#   6]+0.003*[#   7]
          +0.001*[#  12]
    |psi|^2 = 0.042
==== e(  26) =    30.19288 eV ==== 
     psi = 0.003*[#   6]+0.003*[#   7]+0.001*[#   8]+0.001*[#  12]
    |psi|^2 = 0.009
==== e(  27) =    30.48193 eV ==== 
     psi = 0.002*[#   6]+0.002*[#   7]
    |psi|^2 = 0.004
==== e(  28) =    31.55514 eV ==== 
     psi = 0.011*[#   8]+0.002*[#  10]+0.002*[#  11]
    |psi|^2 = 0.016
==== e(  29) =    31.88994 eV ==== 
     psi = 0.006*[#   8]+0.003*[#   6]+0.003*[#   7]
    |psi|^2 = 0.015
==== e(  30) =    33.13666 eV ==== 

    |psi|^2 = 0.001
==== e(  31) =    33.76167 eV ==== 
     psi = 0.009*[#   8]
    |psi|^2 = 0.011
==== e(  32) =    34.34168 eV ==== 

    |psi|^2 = 0.002
==== e(  33) =    36.44732 eV ==== 
     psi = 0.001*[#   6]+0.001*[#   7]
    |psi|^2 = 0.004

 k =   0.0000000000  0.2828427125 -0.7071067812
==== e(   1) =   -70.42204 eV ==== 
     psi = 0.992*[#   1]+0.004*[#  10]+0.002*[#  11]+0.001*[#   5]
    |psi|^2 = 1.000
==== e(   2) =   -37.38852 eV ==== 
     psi = 0.832*[#   2]+0.158*[#   3]+0.007*[#   6]+0.002*[#   9]+0.002*[#   7]
          
    |psi|^2 = 1.000
==== e(   3) =   -37.38774 eV ==== 
     psi = 0.828*[#   3]+0.158*[#   2]+0.009*[#   7]+0.003*[#  12]+0.001*[#   6]
          
    |psi|^2 = 1.000
==== e(   4) =   -37.38729 eV ==== 
     psi = 0.982*[#   4]+0.014*[#   8]+0.002*[#  11]+0.001*[#  10]
    |psi|^2 = 1.000
==== e(   5) =    -7.35473 eV ==== 
     psi = 0.826*[#   9]+0.112*[#   6]+0.061*[#   7]
    |psi|^2 = 0.999
==== e(   6) =     0.55554 eV ==== 
     psi = 0.661*[#  10]+0.243*[#   5]+0.075*[#  11]+0.017*[#   8]+0.002*[#   1]
          
    |psi|^2 = 0.998
==== e(   7) =     1.24252 eV ==== 
     psi = 0.686*[#  11]+0.186*[#   8]+0.095*[#  10]+0.027*[#   5]
    |psi|^2 = 0.994
==== e(   8) =     1.65570 eV ==== 
     psi = 0.713*[#  12]+0.168*[#   7]+0.116*[#   6]
    |psi|^2 = 0.997
==== e(   9) =     8.13638 eV ==== 
     psi = 0.416*[#   6]+0.176*[#  12]+0.080*[#   7]+0.024*[#   9]+0.006*[#   2]
          +0.002*[#   3]
    |psi|^2 = 0.704
==== e(  10) =    10.20289 eV ==== 
     psi = 0.330*[#   5]+0.064*[#  10]+0.063*[#  11]+0.003*[#   1]
    |psi|^2 = 0.460
==== e(  11) =    11.76403 eV ==== 
     psi = 0.429*[#   7]+0.147*[#   6]+0.098*[#   9]+0.027*[#  12]+0.007*[#   3]
          +0.002*[#   2]
    |psi|^2 = 0.709
==== e(  12) =    11.76991 eV ==== 
     psi = 0.278*[#   5]+0.081*[#  10]+0.027*[#  11]+0.002*[#   1]
    |psi|^2 = 0.389
==== e(  13) =    15.50879 eV ==== 
     psi = 0.668*[#   8]+0.120*[#  11]+0.049*[#  10]+0.015*[#   4]+0.002*[#   5]
          
    |psi|^2 = 0.855
==== e(  14) =    16.67834 eV ==== 
     psi = 0.092*[#   5]+0.030*[#  10]+0.014*[#   8]+0.003*[#  11]
    |psi|^2 = 0.139
==== e(  15) =    16.68639 eV ==== 
     psi = 0.047*[#   7]+0.029*[#  12]+0.019*[#   6]
    |psi|^2 = 0.097
==== e(  16) =    17.91522 eV ==== 
     psi = 0.077*[#   7]+0.071*[#   6]+0.035*[#   9]+0.001*[#   3]
    |psi|^2 = 0.186
==== e(  17) =    20.51067 eV ==== 
     psi = 0.013*[#   6]+0.002*[#  12]+0.002*[#   7]+0.001*[#   9]
    |psi|^2 = 0.019
==== e(  18) =    21.19162 eV ==== 
     psi = 0.004*[#   8]+0.002*[#  11]+0.001*[#  10]
    |psi|^2 = 0.008
==== e(  19) =    22.35161 eV ==== 
     psi = 0.058*[#   7]+0.050*[#   6]+0.034*[#  12]+0.001*[#   3]+0.001*[#   9]
          
    |psi|^2 = 0.145
==== e(  20) =    23.04732 eV ==== 
     psi = 0.011*[#   5]+0.002*[#  10]
    |psi|^2 = 0.014
==== e(  21) =    24.02661 eV ==== 
     psi = 0.017*[#   6]+0.002*[#   9]+0.002*[#   7]+0.001*[#  12]
    |psi|^2 = 0.022
==== e(  22) =    24.80180 eV ==== 
     psi = 0.011*[#   5]+0.004*[#  11]+0.003*[#   8]
    |psi|^2 = 0.018
==== e(  23) =    24.91665 eV ==== 
     psi = 0.003*[#   5]+0.002*[#   8]+0.001*[#  11]
    |psi|^2 = 0.008
==== e(  24) =    26.07049 eV ==== 
     psi = 0.027*[#   7]+0.007*[#   9]+0.003*[#  12]+0.001*[#   6]
    |psi|^2 = 0.038
==== e(  25) =    29.30078 eV ==== 
     psi = 0.028*[#   8]+0.006*[#  10]+0.006*[#  11]
    |psi|^2 = 0.041
==== e(  26) =    29.72251 eV ==== 
     psi = 0.010*[#   6]+0.008*[#   7]+0.004*[#  12]
    |psi|^2 = 0.022
==== e(  27) =    29.95589 eV ==== 
     psi = 0.002*[#   6]
    |psi|^2 = 0.003
==== e(  28) =    31.41500 eV ==== 
     psi = 0.022*[#   8]+0.003*[#  11]+0.002*[#  10]
    |psi|^2 = 0.028
==== e(  29) =    32.20651 eV ==== 
     psi = 0.003*[#   7]
    |psi|^2 = 0.004
==== e(  30) =    32.56057 eV ==== 

    |psi|^2 = 0.002
==== e(  31) =    34.11166 eV ==== 

    |psi|^2 = 0.001
==== e(  32) =    35.17482 eV ==== 
     psi = 0.003*[#   7]+0.002*[#  12]
    |psi|^2 = 0.005
==== e(  33) =    35.94063 eV ==== 

    |psi|^2 = 0.000

Lowdin Charges: 

     Atom #   1: total charge =   9.5612, s =  2.5832, 
     Atom #   1: total charge =   9.5612, p =  6.9780, pz=  2.3160, px=  2.3321, py=  2.3299, 
     Atom #   2: total charge =   6.4068, s =  1.6119, 
     Atom #   2: total charge =   6.4068, p =  4.7948, pz=  1.5751, px=  1.6170, py=  1.6027, 
     Spilling Parameter:   0.0020

     PROJWFC      :      1.02s CPU      1.39s WALL


   This run was terminated on:  19:47:12  25Jun2021            

=------------------------------------------------------------------------------=
   JOB DONE.
=------------------------------------------------------------------------------=
