
     Program PWSCF v.6.6 starts on 25Jun2021 at 19:52:43 

     This program is part of the open-source Quantum ESPRESSO suite
     for quantum simulation of materials; please cite
         "P. Giannozzi et al., J. Phys.:Condens. Matter 21 395502 (2009);
         "P. Giannozzi et al., J. Phys.:Condens. Matter 29 465901 (2017);
          URL http://www.quantum-espresso.org", 
     in publications or presentations arising from this work. More details at
     http://www.quantum-espresso.org/quote

     Parallel version (MPI), running on     1 processors

     MPI processes distributed on     1 nodes
     Fft bands division:     nmany     =       1
     Reading input from dft_out/qe.in
Warning: card &CELL ignored
Warning: card  CELL_DYNAMICS = 'BFGS' ignored
Warning: card  CELL_DOFREE = 'ALL' ignored
Warning: card  CELL_FACTOR = 1.0 ignored
Warning: card / ignored
     Message from routine read_cards :
     DEPRECATED: no units specified in CELL_PARAMETERS card

     Current dimensions of program PWSCF are:
     Max number of different atomic species (ntypx) = 10
     Max number of k-points (npk) =  40000
     Max angular momentum in pseudopotentials (lmaxx) =  3
     Message from routine volume:
     axis vectors are left-handed
     file mg.pbesol.UPF: wavefunction(s)  3P renormalized

     Subspace diagonalization in iterative solution of the eigenvalue problem:
     a serial algorithm will be used

     Message from routine setup:
     using ibrav=0 with symmetry is DISCOURAGED, use correct ibrav instead

     G-vector sticks info
     --------------------
     sticks:   dense  smooth     PW     G-vecs:    dense   smooth      PW
     Sum         967     703    211                20179    12339    2109



     bravais-lattice index     =            0
     lattice parameter (alat)  =       7.5513  a.u.
     unit-cell volume          =     304.4693 (a.u.)^3
     number of atoms/cell      =            2
     number of atomic types    =            2
     number of electrons       =        16.00
     number of Kohn-Sham states=           12
     kinetic-energy cutoff     =      45.0000  Ry
     charge density cutoff     =     250.0000  Ry
     convergence threshold     =      1.0E-09
     mixing beta               =       0.3000
     number of iterations used =            8  local-TF  mixing
     Exchange-correlation= SLA  PW   PSX  PSC
                           (   1   4  10   8   0   0   0)
     A smooth kinetic-energy cutoff is imposed at      44.5000 Ry
     height of the smooth step-function =             800.0000 Ry
     width of the smooth step-function  =               1.0000 Ry


     celldm(1)=   7.551261  celldm(2)=   0.000000  celldm(3)=   0.000000
     celldm(4)=   0.000000  celldm(5)=   0.000000  celldm(6)=   0.000000

     crystal axes: (cart. coord. in units of alat)
               a(1) = (   0.707107   0.707107   0.000000 )  
               a(2) = (   0.707107   0.000000   0.707107 )  
               a(3) = (   0.000000   0.707107   0.707107 )  

     reciprocal axes: (cart. coord. in units 2 pi/alat)
               b(1) = (  0.707107  0.707107 -0.707107 )  
               b(2) = (  0.707107 -0.707107  0.707107 )  
               b(3) = ( -0.707107  0.707107  0.707107 )  


     PseudoPot. # 1 for Mg read from file:
     /home/kfg/codes/ThreeBodyTB.jl/src/../pseudo/gbrv_pbesol/mg.pbesol.UPF
     MD5 check sum: cbba17e5274afd115179030b10be074e
     Pseudo is Ultrasoft, Zval = 10.0
     Generated by new atomic code, or converted to UPF format
     Using radial grid of  821 points,  7 beta functions with: 
                l(1) =   0
                l(2) =   0
                l(3) =   0
                l(4) =   1
                l(5) =   1
                l(6) =   2
                l(7) =   2
     Q(r) pseudized with  8 coefficients,  rinner =    1.200   1.200   1.200
                                                       1.200   1.200

     PseudoPot. # 2 for S  read from file:
     /home/kfg/codes/ThreeBodyTB.jl/src/../pseudo/gbrv_pbesol/s.pbesol.UPF
     MD5 check sum: 0ccfa86ec6eb59065d10aaae963ef2a7
     Pseudo is Ultrasoft + core correction, Zval =  6.0
     Generated by new atomic code, or converted to UPF format
     Using radial grid of  907 points,  6 beta functions with: 
                l(1) =   0
                l(2) =   0
                l(3) =   1
                l(4) =   1
                l(5) =   2
                l(6) =   2
     Q(r) pseudized with  8 coefficients,  rinner =    1.300   1.300   1.300
                                                       1.300   1.300

     atomic species   valence    mass     pseudopotential
        Mg            10.00    24.31000     Mg( 1.00)
        S              6.00    32.06000     S ( 1.00)

     24 Sym. Ops. (no inversion) found


                                    s                        frac. trans.

      isym =  1     identity                                     

 cryst.   s( 1) = (     1          0          0      )
                  (     0          1          0      )
                  (     0          0          1      )

 cart.    s( 1) = (  1.0000000  0.0000000  0.0000000 )
                  (  0.0000000  1.0000000  0.0000000 )
                  (  0.0000000  0.0000000  1.0000000 )


      isym =  2     180 deg rotation - cart. axis [0,0,1]        

 cryst.   s( 2) = (    -1          0          0      )
                  (    -1          0          1      )
                  (    -1          1          0      )

 cart.    s( 2) = ( -1.0000000  0.0000000  0.0000000 )
                  (  0.0000000 -1.0000000  0.0000000 )
                  (  0.0000000  0.0000000  1.0000000 )


      isym =  3     180 deg rotation - cart. axis [0,1,0]        

 cryst.   s( 3) = (     0         -1          1      )
                  (     0         -1          0      )
                  (     1         -1          0      )

 cart.    s( 3) = ( -1.0000000  0.0000000  0.0000000 )
                  (  0.0000000  1.0000000  0.0000000 )
                  (  0.0000000  0.0000000 -1.0000000 )


      isym =  4     180 deg rotation - cart. axis [1,0,0]        

 cryst.   s( 4) = (     0          1         -1      )
                  (     1          0         -1      )
                  (     0          0         -1      )

 cart.    s( 4) = (  1.0000000  0.0000000  0.0000000 )
                  (  0.0000000 -1.0000000  0.0000000 )
                  (  0.0000000  0.0000000 -1.0000000 )


      isym =  5     120 deg rotation - cart. axis [-1,-1,-1]     

 cryst.   s( 5) = (     0          1          0      )
                  (     0          0          1      )
                  (     1          0          0      )

 cart.    s( 5) = (  0.0000000  1.0000000  0.0000000 )
                  (  0.0000000  0.0000000  1.0000000 )
                  (  1.0000000  0.0000000  0.0000000 )


      isym =  6     120 deg rotation - cart. axis [-1,1,1]       

 cryst.   s( 6) = (     0         -1          0      )
                  (     1         -1          0      )
                  (     0         -1          1      )

 cart.    s( 6) = (  0.0000000 -1.0000000  0.0000000 )
                  (  0.0000000  0.0000000  1.0000000 )
                  ( -1.0000000  0.0000000  0.0000000 )


      isym =  7     120 deg rotation - cart. axis [1,1,-1]       

 cryst.   s( 7) = (     1          0         -1      )
                  (     0          0         -1      )
                  (     0          1         -1      )

 cart.    s( 7) = (  0.0000000  1.0000000  0.0000000 )
                  (  0.0000000  0.0000000 -1.0000000 )
                  ( -1.0000000  0.0000000  0.0000000 )


      isym =  8     120 deg rotation - cart. axis [1,-1,1]       

 cryst.   s( 8) = (    -1          0          1      )
                  (    -1          1          0      )
                  (    -1          0          0      )

 cart.    s( 8) = (  0.0000000 -1.0000000  0.0000000 )
                  (  0.0000000  0.0000000 -1.0000000 )
                  (  1.0000000  0.0000000  0.0000000 )


      isym =  9     120 deg rotation - cart. axis [1,1,1]        

 cryst.   s( 9) = (     0          0          1      )
                  (     1          0          0      )
                  (     0          1          0      )

 cart.    s( 9) = (  0.0000000  0.0000000  1.0000000 )
                  (  1.0000000  0.0000000  0.0000000 )
                  (  0.0000000  1.0000000  0.0000000 )


      isym = 10     120 deg rotation - cart. axis [-1,1,-1]      

 cryst.   s(10) = (     0          0         -1      )
                  (     0          1         -1      )
                  (     1          0         -1      )

 cart.    s(10) = (  0.0000000  0.0000000  1.0000000 )
                  ( -1.0000000  0.0000000  0.0000000 )
                  (  0.0000000 -1.0000000  0.0000000 )


      isym = 11     120 deg rotation - cart. axis [1,-1,-1]      

 cryst.   s(11) = (    -1          1          0      )
                  (    -1          0          0      )
                  (    -1          0          1      )

 cart.    s(11) = (  0.0000000  0.0000000 -1.0000000 )
                  ( -1.0000000  0.0000000  0.0000000 )
                  (  0.0000000  1.0000000  0.0000000 )


      isym = 12     120 deg rotation - cart. axis [-1,-1,1]      

 cryst.   s(12) = (     1         -1          0      )
                  (     0         -1          1      )
                  (     0         -1          0      )

 cart.    s(12) = (  0.0000000  0.0000000 -1.0000000 )
                  (  1.0000000  0.0000000  0.0000000 )
                  (  0.0000000 -1.0000000  0.0000000 )


      isym = 13     inv. 180 deg rotation - cart. axis [1,1,0]   

 cryst.   s(13) = (    -1          0          0      )
                  (    -1          1          0      )
                  (    -1          0          1      )

 cart.    s(13) = (  0.0000000 -1.0000000  0.0000000 )
                  ( -1.0000000  0.0000000  0.0000000 )
                  (  0.0000000  0.0000000  1.0000000 )


      isym = 14     inv. 180 deg rotation - cart. axis [1,-1,0]  

 cryst.   s(14) = (     1          0          0      )
                  (     0          0          1      )
                  (     0          1          0      )

 cart.    s(14) = (  0.0000000  1.0000000  0.0000000 )
                  (  1.0000000  0.0000000  0.0000000 )
                  (  0.0000000  0.0000000  1.0000000 )


      isym = 15     inv.  90 deg rotation - cart. axis [0,0,-1]  

 cryst.   s(15) = (     0         -1          1      )
                  (     1         -1          0      )
                  (     0         -1          0      )

 cart.    s(15) = (  0.0000000 -1.0000000  0.0000000 )
                  (  1.0000000  0.0000000  0.0000000 )
                  (  0.0000000  0.0000000 -1.0000000 )


      isym = 16     inv.  90 deg rotation - cart. axis [0,0,1]   

 cryst.   s(16) = (     0          1         -1      )
                  (     0          0         -1      )
                  (     1          0         -1      )

 cart.    s(16) = (  0.0000000  1.0000000  0.0000000 )
                  ( -1.0000000  0.0000000  0.0000000 )
                  (  0.0000000  0.0000000 -1.0000000 )


      isym = 17     inv. 180 deg rotation - cart. axis [1,0,1]   

 cryst.   s(17) = (     1         -1          0      )
                  (     0         -1          0      )
                  (     0         -1          1      )

 cart.    s(17) = (  0.0000000  0.0000000 -1.0000000 )
                  (  0.0000000  1.0000000  0.0000000 )
                  ( -1.0000000  0.0000000  0.0000000 )


      isym = 18     inv. 180 deg rotation - cart. axis [-1,0,1]  

 cryst.   s(18) = (     0          0          1      )
                  (     0          1          0      )
                  (     1          0          0      )

 cart.    s(18) = (  0.0000000  0.0000000  1.0000000 )
                  (  0.0000000  1.0000000  0.0000000 )
                  (  1.0000000  0.0000000  0.0000000 )


      isym = 19     inv.  90 deg rotation - cart. axis [0,1,0]   

 cryst.   s(19) = (    -1          1          0      )
                  (    -1          0          1      )
                  (    -1          0          0      )

 cart.    s(19) = (  0.0000000  0.0000000 -1.0000000 )
                  (  0.0000000 -1.0000000  0.0000000 )
                  (  1.0000000  0.0000000  0.0000000 )


      isym = 20     inv.  90 deg rotation - cart. axis [0,-1,0]  

 cryst.   s(20) = (     0          0         -1      )
                  (     1          0         -1      )
                  (     0          1         -1      )

 cart.    s(20) = (  0.0000000  0.0000000  1.0000000 )
                  (  0.0000000 -1.0000000  0.0000000 )
                  ( -1.0000000  0.0000000  0.0000000 )


      isym = 21     inv. 180 deg rotation - cart. axis [0,1,1]   

 cryst.   s(21) = (     1          0         -1      )
                  (     0          1         -1      )
                  (     0          0         -1      )

 cart.    s(21) = (  1.0000000  0.0000000  0.0000000 )
                  (  0.0000000  0.0000000 -1.0000000 )
                  (  0.0000000 -1.0000000  0.0000000 )


      isym = 22     inv. 180 deg rotation - cart. axis [0,1,-1]  

 cryst.   s(22) = (     0          1          0      )
                  (     1          0          0      )
                  (     0          0          1      )

 cart.    s(22) = (  1.0000000  0.0000000  0.0000000 )
                  (  0.0000000  0.0000000  1.0000000 )
                  (  0.0000000  1.0000000  0.0000000 )


      isym = 23     inv.  90 deg rotation - cart. axis [-1,0,0]  

 cryst.   s(23) = (    -1          0          1      )
                  (    -1          0          0      )
                  (    -1          1          0      )

 cart.    s(23) = ( -1.0000000  0.0000000  0.0000000 )
                  (  0.0000000  0.0000000 -1.0000000 )
                  (  0.0000000  1.0000000  0.0000000 )


      isym = 24     inv.  90 deg rotation - cart. axis [1,0,0]   

 cryst.   s(24) = (     0         -1          0      )
                  (     0         -1          1      )
                  (     1         -1          0      )

 cart.    s(24) = ( -1.0000000  0.0000000  0.0000000 )
                  (  0.0000000  0.0000000  1.0000000 )
                  (  0.0000000 -1.0000000  0.0000000 )


   Cartesian axes

     site n.     atom                  positions (alat units)
         1           Mg  tau(   1) = (   0.0000000   0.0000000   0.0000000  )
         2           S   tau(   2) = (   0.3535534   0.3535534   0.3535534  )

   Crystallographic axes

     site n.     atom                  positions (cryst. coord.)
         1           Mg  tau(   1) = (  0.0000000  0.0000000  0.0000000  )
         2           S   tau(   2) = (  0.2500000  0.2500000  0.2500000  )

     number of k points=    47  Gaussian smearing, width (Ry)=  0.0100
                       cart. coord. in units 2pi/alat
        k(    1) = (   0.0000000   0.0000000   0.0000000), wk =   0.0020000
        k(    2) = (  -0.0707107   0.0707107   0.0707107), wk =   0.0160000
        k(    3) = (  -0.1414214   0.1414214   0.1414214), wk =   0.0160000
        k(    4) = (  -0.2121320   0.2121320   0.2121320), wk =   0.0160000
        k(    5) = (  -0.2828427   0.2828427   0.2828427), wk =   0.0160000
        k(    6) = (   0.3535534  -0.3535534  -0.3535534), wk =   0.0080000
        k(    7) = (   0.0000000   0.0000000   0.1414214), wk =   0.0120000
        k(    8) = (  -0.0707107   0.0707107   0.2121320), wk =   0.0480000
        k(    9) = (  -0.1414214   0.1414214   0.2828427), wk =   0.0480000
        k(   10) = (  -0.2121320   0.2121320   0.3535534), wk =   0.0480000
        k(   11) = (   0.4242641  -0.4242641  -0.2828427), wk =   0.0480000
        k(   12) = (   0.3535534  -0.3535534  -0.2121320), wk =   0.0480000
        k(   13) = (   0.2828427  -0.2828427  -0.1414214), wk =   0.0480000
        k(   14) = (   0.2121320  -0.2121320  -0.0707107), wk =   0.0480000
        k(   15) = (   0.1414214  -0.1414214   0.0000000), wk =   0.0240000
        k(   16) = (   0.0000000   0.0000000   0.2828427), wk =   0.0120000
        k(   17) = (  -0.0707107   0.0707107   0.3535534), wk =   0.0480000
        k(   18) = (  -0.1414214   0.1414214   0.4242641), wk =   0.0480000
        k(   19) = (   0.4949747  -0.4949747  -0.2121320), wk =   0.0480000
        k(   20) = (   0.4242641  -0.4242641  -0.1414214), wk =   0.0480000
        k(   21) = (   0.3535534  -0.3535534  -0.0707107), wk =   0.0480000
        k(   22) = (   0.2828427  -0.2828427   0.0000000), wk =   0.0240000
        k(   23) = (   0.0000000   0.0000000   0.4242641), wk =   0.0120000
        k(   24) = (  -0.0707107   0.0707107   0.4949747), wk =   0.0480000
        k(   25) = (   0.5656854  -0.5656854  -0.1414214), wk =   0.0480000
        k(   26) = (   0.4949747  -0.4949747  -0.0707107), wk =   0.0480000
        k(   27) = (   0.4242641  -0.4242641  -0.0000000), wk =   0.0240000
        k(   28) = (   0.0000000   0.0000000   0.5656854), wk =   0.0120000
        k(   29) = (   0.6363961  -0.6363961  -0.0707107), wk =   0.0480000
        k(   30) = (   0.5656854  -0.5656854   0.0000000), wk =   0.0240000
        k(   31) = (   0.0000000   0.0000000  -0.7071068), wk =   0.0060000
        k(   32) = (   0.0000000   0.1414214   0.2828427), wk =   0.0480000
        k(   33) = (  -0.0707107   0.2121320   0.3535534), wk =   0.0960000
        k(   34) = (   0.5656854  -0.4242641  -0.2828427), wk =   0.0960000
        k(   35) = (   0.4949747  -0.3535534  -0.2121320), wk =   0.0480000
        k(   36) = (  -0.0000000   0.1414214   0.4242641), wk =   0.0480000
        k(   37) = (   0.6363961  -0.4949747  -0.2121320), wk =   0.0960000
        k(   38) = (   0.5656854  -0.4242641  -0.1414214), wk =   0.0960000
        k(   39) = (   0.4949747  -0.3535534  -0.0707107), wk =   0.0960000
        k(   40) = (   0.4242641  -0.2828427   0.0000000), wk =   0.0480000
        k(   41) = (   0.7071068  -0.5656854  -0.1414214), wk =   0.0480000
        k(   42) = (   0.6363961  -0.4949747  -0.0707107), wk =   0.0960000
        k(   43) = (   0.5656854  -0.4242641  -0.0000000), wk =   0.0480000
        k(   44) = (   0.0000000   0.1414214  -0.7071068), wk =   0.0240000
        k(   45) = (   0.7071068  -0.4242641  -0.1414214), wk =   0.0480000
        k(   46) = (   0.6363961  -0.3535534  -0.0707107), wk =   0.0480000
        k(   47) = (   0.0000000   0.2828427  -0.7071068), wk =   0.0240000

                       cryst. coord.
        k(    1) = (   0.0000000   0.0000000   0.0000000), wk =   0.0020000
        k(    2) = (   0.0000000   0.0000000   0.1000000), wk =   0.0160000
        k(    3) = (   0.0000000   0.0000000   0.2000000), wk =   0.0160000
        k(    4) = (   0.0000000   0.0000000   0.3000000), wk =   0.0160000
        k(    5) = (   0.0000000   0.0000000   0.4000000), wk =   0.0160000
        k(    6) = (   0.0000000   0.0000000  -0.5000000), wk =   0.0080000
        k(    7) = (   0.0000000   0.1000000   0.1000000), wk =   0.0120000
        k(    8) = (   0.0000000   0.1000000   0.2000000), wk =   0.0480000
        k(    9) = (   0.0000000   0.1000000   0.3000000), wk =   0.0480000
        k(   10) = (   0.0000000   0.1000000   0.4000000), wk =   0.0480000
        k(   11) = (   0.0000000   0.1000000  -0.5000000), wk =   0.0480000
        k(   12) = (   0.0000000   0.1000000  -0.4000000), wk =   0.0480000
        k(   13) = (   0.0000000   0.1000000  -0.3000000), wk =   0.0480000
        k(   14) = (   0.0000000   0.1000000  -0.2000000), wk =   0.0480000
        k(   15) = (   0.0000000   0.1000000  -0.1000000), wk =   0.0240000
        k(   16) = (   0.0000000   0.2000000   0.2000000), wk =   0.0120000
        k(   17) = (   0.0000000   0.2000000   0.3000000), wk =   0.0480000
        k(   18) = (   0.0000000   0.2000000   0.4000000), wk =   0.0480000
        k(   19) = (   0.0000000   0.2000000  -0.5000000), wk =   0.0480000
        k(   20) = (   0.0000000   0.2000000  -0.4000000), wk =   0.0480000
        k(   21) = (   0.0000000   0.2000000  -0.3000000), wk =   0.0480000
        k(   22) = (   0.0000000   0.2000000  -0.2000000), wk =   0.0240000
        k(   23) = (   0.0000000   0.3000000   0.3000000), wk =   0.0120000
        k(   24) = (   0.0000000   0.3000000   0.4000000), wk =   0.0480000
        k(   25) = (   0.0000000   0.3000000  -0.5000000), wk =   0.0480000
        k(   26) = (   0.0000000   0.3000000  -0.4000000), wk =   0.0480000
        k(   27) = (   0.0000000   0.3000000  -0.3000000), wk =   0.0240000
        k(   28) = (   0.0000000   0.4000000   0.4000000), wk =   0.0120000
        k(   29) = (   0.0000000   0.4000000  -0.5000000), wk =   0.0480000
        k(   30) = (   0.0000000   0.4000000  -0.4000000), wk =   0.0240000
        k(   31) = (   0.0000000  -0.5000000  -0.5000000), wk =   0.0060000
        k(   32) = (   0.1000000   0.2000000   0.3000000), wk =   0.0480000
        k(   33) = (   0.1000000   0.2000000   0.4000000), wk =   0.0960000
        k(   34) = (   0.1000000   0.2000000  -0.5000000), wk =   0.0960000
        k(   35) = (   0.1000000   0.2000000  -0.4000000), wk =   0.0480000
        k(   36) = (   0.1000000   0.3000000   0.4000000), wk =   0.0480000
        k(   37) = (   0.1000000   0.3000000  -0.5000000), wk =   0.0960000
        k(   38) = (   0.1000000   0.3000000  -0.4000000), wk =   0.0960000
        k(   39) = (   0.1000000   0.3000000  -0.3000000), wk =   0.0960000
        k(   40) = (   0.1000000   0.3000000  -0.2000000), wk =   0.0480000
        k(   41) = (   0.1000000   0.4000000  -0.5000000), wk =   0.0480000
        k(   42) = (   0.1000000   0.4000000  -0.4000000), wk =   0.0960000
        k(   43) = (   0.1000000   0.4000000  -0.3000000), wk =   0.0480000
        k(   44) = (   0.1000000  -0.5000000  -0.4000000), wk =   0.0240000
        k(   45) = (   0.2000000   0.4000000  -0.4000000), wk =   0.0480000
        k(   46) = (   0.2000000   0.4000000  -0.3000000), wk =   0.0480000
        k(   47) = (   0.2000000  -0.5000000  -0.3000000), wk =   0.0240000

     Dense  grid:    20179 G-vectors     FFT dimensions: (  40,  40,  40)

     Smooth grid:    12339 G-vectors     FFT dimensions: (  36,  36,  36)

     Dynamical RAM for                 wfc:       0.28 MB

     Dynamical RAM for     wfc (w. buffer):      13.64 MB

     Dynamical RAM for           str. fact:       0.62 MB

     Dynamical RAM for           local pot:       0.00 MB

     Dynamical RAM for          nlocal pot:       0.88 MB

     Dynamical RAM for                qrad:       3.39 MB

     Dynamical RAM for          rho,v,vnew:       2.39 MB

     Dynamical RAM for               rhoin:       0.80 MB

     Dynamical RAM for            rho*nmix:       4.93 MB

     Dynamical RAM for           G-vectors:       1.25 MB

     Dynamical RAM for          h,s,v(r/c):       0.03 MB

     Dynamical RAM for          <psi|beta>:       0.01 MB

     Dynamical RAM for                 psi:       0.57 MB

     Dynamical RAM for                hpsi:       0.57 MB

     Dynamical RAM for                spsi:       0.57 MB

     Dynamical RAM for      wfcinit/wfcrot:       0.57 MB

     Dynamical RAM for           addusdens:      63.43 MB

     Dynamical RAM for          addusforce:      63.59 MB

     Dynamical RAM for         addusstress:      67.74 MB

     Estimated static dynamical RAM per process >      31.24 MB

     Estimated max dynamical RAM per process >      98.98 MB

     Initial potential from superposition of free atoms

     starting charge   15.69974, renormalised to   16.00000
     Starting wfcs are   12 randomized atomic wfcs

     total cpu time spent up to now is        1.4 secs

     Self-consistent Calculation

     iteration #  1     ecut=    45.00 Ry     beta= 0.30
     Davidson diagonalization with overlap
     ethr =  1.00E-02,  avg # of iterations =  4.8

     total cpu time spent up to now is        4.3 secs

     total energy              =    -149.37669937 Ry
     estimated scf accuracy    <       0.17571078 Ry

     iteration #  2     ecut=    45.00 Ry     beta= 0.30
     Davidson diagonalization with overlap
     ethr =  1.10E-03,  avg # of iterations =  1.0

     total cpu time spent up to now is        6.4 secs

     total energy              =    -149.32064725 Ry
     estimated scf accuracy    <       0.10684125 Ry

     iteration #  3     ecut=    45.00 Ry     beta= 0.30
     Davidson diagonalization with overlap
     ethr =  6.68E-04,  avg # of iterations =  2.0

     total cpu time spent up to now is        8.8 secs

     total energy              =    -149.33503644 Ry
     estimated scf accuracy    <       0.00773964 Ry

     iteration #  4     ecut=    45.00 Ry     beta= 0.30
     Davidson diagonalization with overlap
     ethr =  4.84E-05,  avg # of iterations =  4.1

     total cpu time spent up to now is       11.4 secs

     total energy              =    -149.33468275 Ry
     estimated scf accuracy    <       0.00165055 Ry

     iteration #  5     ecut=    45.00 Ry     beta= 0.30
     Davidson diagonalization with overlap
     ethr =  1.03E-05,  avg # of iterations =  2.4

     total cpu time spent up to now is       13.9 secs

     total energy              =    -149.33484498 Ry
     estimated scf accuracy    <       0.00009634 Ry

     iteration #  6     ecut=    45.00 Ry     beta= 0.30
     Davidson diagonalization with overlap
     ethr =  6.02E-07,  avg # of iterations =  2.8

     total cpu time spent up to now is       16.7 secs

     total energy              =    -149.33485841 Ry
     estimated scf accuracy    <       0.00005822 Ry

     iteration #  7     ecut=    45.00 Ry     beta= 0.30
     Davidson diagonalization with overlap
     ethr =  3.64E-07,  avg # of iterations =  1.0

     total cpu time spent up to now is       18.8 secs

     total energy              =    -149.33485812 Ry
     estimated scf accuracy    <       0.00001046 Ry

     iteration #  8     ecut=    45.00 Ry     beta= 0.30
     Davidson diagonalization with overlap
     ethr =  6.54E-08,  avg # of iterations =  2.1

     total cpu time spent up to now is       21.3 secs

     total energy              =    -149.33486118 Ry
     estimated scf accuracy    <       0.00000046 Ry

     iteration #  9     ecut=    45.00 Ry     beta= 0.30
     Davidson diagonalization with overlap
     ethr =  2.88E-09,  avg # of iterations =  4.3

     total cpu time spent up to now is       24.3 secs

     total energy              =    -149.33486139 Ry
     estimated scf accuracy    <       0.00000019 Ry

     iteration # 10     ecut=    45.00 Ry     beta= 0.30
     Davidson diagonalization with overlap
     ethr =  1.18E-09,  avg # of iterations =  2.0

     total cpu time spent up to now is       26.7 secs

     total energy              =    -149.33486145 Ry
     estimated scf accuracy    <       0.00000006 Ry

     iteration # 11     ecut=    45.00 Ry     beta= 0.30
     Davidson diagonalization with overlap
     ethr =  3.66E-10,  avg # of iterations =  2.0

     total cpu time spent up to now is       29.1 secs

     total energy              =    -149.33486146 Ry
     estimated scf accuracy    <          1.6E-09 Ry

     iteration # 12     ecut=    45.00 Ry     beta= 0.30
     Davidson diagonalization with overlap
     ethr =  9.87E-12,  avg # of iterations =  3.1

     total cpu time spent up to now is       31.8 secs

     End of self-consistent calculation

          k = 0.0000 0.0000 0.0000 (  1471 PWs)   bands (ev):

   -70.4219 -37.3860 -37.3860 -37.3860  -8.2953   2.9913   2.9913   2.9913
     6.3135  10.8469  10.8469  10.8469

     occupation numbers 
     1.0000   1.0000   1.0000   1.0000   1.0000   1.0000   1.0000   1.0000
     0.0000   0.0000   0.0000   0.0000

          k =-0.0707 0.0707 0.0707 (  1522 PWs)   bands (ev):

   -70.4219 -37.3862 -37.3860 -37.3860  -8.2370   2.5077   2.9559   2.9559
     6.7849  10.7096  10.9711  10.9711

     occupation numbers 
     1.0000   1.0000   1.0000   1.0000   1.0000   1.0000   1.0000   1.0000
     0.0000   0.0000   0.0000   0.0000

          k =-0.1414 0.1414 0.1414 (  1540 PWs)   bands (ev):

   -70.4219 -37.3869 -37.3861 -37.3861  -8.0767   1.5666   2.8673   2.8673
     7.5805  10.5892  11.1187  11.1187

     occupation numbers 
     1.0000   1.0000   1.0000   1.0000   1.0000   1.0000   1.0000   1.0000
     0.0000   0.0000   0.0000   0.0000

          k =-0.2121 0.2121 0.2121 (  1552 PWs)   bands (ev):

   -70.4218 -37.3878 -37.3863 -37.3863  -7.8610   0.6642   2.7656   2.7656
     7.9900  10.8851  10.9143  10.9143

     occupation numbers 
     1.0000   1.0000   1.0000   1.0000   1.0000   1.0000   1.0000   1.0000
     0.0000   0.0000   0.0000   0.0000

          k =-0.2828 0.2828 0.2828 (  1537 PWs)   bands (ev):

   -70.4218 -37.3885 -37.3864 -37.3864  -7.6688   0.0264   2.6887   2.6887
     8.0245  10.6294  10.6294  11.3023

     occupation numbers 
     1.0000   1.0000   1.0000   1.0000   1.0000   1.0000   1.0000   1.0000
     0.0000   0.0000   0.0000   0.0000

          k = 0.3536-0.3536-0.3536 (  1538 PWs)   bands (ev):

   -70.4218 -37.3887 -37.3864 -37.3864  -7.5904  -0.2052   2.6605   2.6605
     8.0010  10.5166  10.5166  11.4412

     occupation numbers 
     1.0000   1.0000   1.0000   1.0000   1.0000   1.0000   1.0000   1.0000
     0.0000   0.0000   0.0000   0.0000

          k = 0.0000 0.0000 0.1414 (  1523 PWs)   bands (ev):

   -70.4219 -37.3862 -37.3861 -37.3861  -8.2175   2.5011   2.8694   2.8694
     6.9423  10.4768  11.1232  11.1232

     occupation numbers 
     1.0000   1.0000   1.0000   1.0000   1.0000   1.0000   1.0000   1.0000
     0.0000   0.0000   0.0000   0.0000

          k =-0.0707 0.0707 0.2121 (  1535 PWs)   bands (ev):

   -70.4219 -37.3868 -37.3862 -37.3862  -8.0912   1.7972   2.7436   2.7935
     7.6298  10.2262  11.2045  11.3898

     occupation numbers 
     1.0000   1.0000   1.0000   1.0000   1.0000   1.0000   1.0000   1.0000
     0.0000   0.0000   0.0000   0.0000

          k =-0.1414 0.1414 0.2828 (  1553 PWs)   bands (ev):

   -70.4218 -37.3875 -37.3863 -37.3863  -7.8931   0.9413   2.6309   2.6707
     8.1884  10.2938  10.7938  11.3531

     occupation numbers 
     1.0000   1.0000   1.0000   1.0000   1.0000   1.0000   1.0000   1.0000
     0.0000   0.0000   0.0000   0.0000

          k =-0.2121 0.2121 0.3536 (  1557 PWs)   bands (ev):

   -70.4218 -37.3882 -37.3865 -37.3864  -7.6905   0.2516   2.5177   2.5702
     8.3384  10.0832  11.0509  11.2328

     occupation numbers 
     1.0000   1.0000   1.0000   1.0000   1.0000   1.0000   1.0000   1.0000
     0.0000   0.0000   0.0000   0.0000

          k = 0.4243-0.4243-0.2828 (  1543 PWs)   bands (ev):

   -70.4218 -37.3886 -37.3866 -37.3865  -7.5709  -0.1006   2.3930   2.5790
     8.3561   9.8945  10.8082  11.7661

     occupation numbers 
     1.0000   1.0000   1.0000   1.0000   1.0000   1.0000   1.0000   1.0000
     0.0000   0.0000   0.0000   0.0000

          k = 0.3536-0.3536-0.2121 (  1541 PWs)   bands (ev):

   -70.4218 -37.3885 -37.3866 -37.3864  -7.5971  -0.0251   2.3391   2.6533
     8.3948   9.9798  10.7651  11.6845

     occupation numbers 
     1.0000   1.0000   1.0000   1.0000   1.0000   1.0000   1.0000   1.0000
     0.0000   0.0000   0.0000   0.0000

          k = 0.2828-0.2828-0.1414 (  1551 PWs)   bands (ev):

   -70.4218 -37.3880 -37.3865 -37.3863  -7.7544   0.4550   2.3776   2.7698
     8.3996  10.3073  10.9468  11.0966

     occupation numbers 
     1.0000   1.0000   1.0000   1.0000   1.0000   1.0000   1.0000   1.0000
     0.0000   0.0000   0.0000   0.0000

          k = 0.2121-0.2121-0.0707 (  1541 PWs)   bands (ev):

   -70.4218 -37.3873 -37.3864 -37.3862  -7.9649   1.2086   2.5115   2.8890
     8.0947  10.4226  10.9537  11.2227

     occupation numbers 
     1.0000   1.0000   1.0000   1.0000   1.0000   1.0000   1.0000   1.0000
     0.0000   0.0000   0.0000   0.0000

          k = 0.1414-0.1414 0.0000 (  1538 PWs)   bands (ev):

   -70.4219 -37.3866 -37.3862 -37.3860  -8.1445   2.0069   2.7320   2.9629
     7.3651  10.4880  11.1124  11.1661

     occupation numbers 
     1.0000   1.0000   1.0000   1.0000   1.0000   1.0000   1.0000   1.0000
     0.0000   0.0000   0.0000   0.0000

          k = 0.0000 0.0000 0.2828 (  1535 PWs)   bands (ev):

   -70.4218 -37.3869 -37.3863 -37.3863  -8.0044   1.6219   2.5768   2.5768
     7.9338   9.7451  11.3571  11.8749

     occupation numbers 
     1.0000   1.0000   1.0000   1.0000   1.0000   1.0000   1.0000   1.0000
     0.0000   0.0000   0.0000   0.0000

          k =-0.0707 0.0707 0.3536 (  1551 PWs)   bands (ev):

   -70.4218 -37.3875 -37.3865 -37.3865  -7.8406   1.0653   2.3993   2.4341
     8.1779   9.5984  10.9239  12.1441

     occupation numbers 
     1.0000   1.0000   1.0000   1.0000   1.0000   1.0000   1.0000   1.0000
     0.0000   0.0000   0.0000   0.0000

          k =-0.1414 0.1414 0.4243 (  1544 PWs)   bands (ev):

   -70.4218 -37.3881 -37.3867 -37.3866  -7.6534   0.5077   2.1338   2.3623
     8.2855   9.8135  10.8113  11.9482

     occupation numbers 
     1.0000   1.0000   1.0000   1.0000   1.0000   1.0000   1.0000   1.0000
     0.0000   0.0000   0.0000   0.0000

          k = 0.4950-0.4950-0.2121 (  1559 PWs)   bands (ev):

   -70.4218 -37.3884 -37.3869 -37.3866  -7.5178   0.1626   1.8574   2.3810
     8.4126   9.7974  11.4290  11.6267

     occupation numbers 
     1.0000   1.0000   1.0000   1.0000   1.0000   1.0000   1.0000   1.0000
     0.0000   0.0000   0.0000   0.0000

          k = 0.4243-0.4243-0.1414 (  1555 PWs)   bands (ev):

   -70.4218 -37.3884 -37.3871 -37.3866  -7.4995   0.1329   1.6861   2.4844
     8.7176   9.6731  11.4211  11.7720

     occupation numbers 
     1.0000   1.0000   1.0000   1.0000   1.0000   1.0000   1.0000   1.0000
     0.0000   0.0000   0.0000   0.0000

          k = 0.3536-0.3536-0.0707 (  1554 PWs)   bands (ev):

   -70.4218 -37.3881 -37.3870 -37.3864  -7.6078   0.4001   1.7120   2.6417
     9.1646   9.6078  11.1060  11.4029

     occupation numbers 
     1.0000   1.0000   1.0000   1.0000   1.0000   1.0000   1.0000   1.0000
     0.0000   0.0000   0.0000   0.0000

          k = 0.2828-0.2828 0.0000 (  1554 PWs)   bands (ev):

   -70.4218 -37.3877 -37.3868 -37.3863  -7.7884   0.8096   2.0098   2.7986
     8.9091  10.0277  10.6149  11.4737

     occupation numbers 
     1.0000   1.0000   1.0000   1.0000   1.0000   1.0000   1.0000   1.0000
     0.0000   0.0000   0.0000   0.0000

          k = 0.0000 0.0000 0.4243 (  1556 PWs)   bands (ev):

   -70.4218 -37.3878 -37.3867 -37.3867  -7.7189   0.8405   2.2571   2.2571
     7.7362   9.1340  11.7320  12.9556

     occupation numbers 
     1.0000   1.0000   1.0000   1.0000   1.0000   1.0000   1.0000   1.0000
     0.0000   0.0000   0.0000   0.0000

          k =-0.0707 0.0707 0.4950 (  1561 PWs)   bands (ev):

   -70.4218 -37.3882 -37.3869 -37.3868  -7.5684   0.5151   2.0037   2.1572
     7.5464   9.1076  11.9456  13.1538

     occupation numbers 
     1.0000   1.0000   1.0000   1.0000   1.0000   1.0000   1.0000   1.0000
     0.0000   0.0000   0.0000   0.0000

          k = 0.5657-0.5657-0.1414 (  1554 PWs)   bands (ev):

   -70.4218 -37.3884 -37.3872 -37.3868  -7.4478   0.3481   1.5578   2.1611
     7.6687   9.5719  11.9079  12.8387

     occupation numbers 
     1.0000   1.0000   1.0000   1.0000   1.0000   1.0000   1.0000   1.0000
     0.0000   0.0000   0.0000   0.0000

          k = 0.4950-0.4950-0.0707 (  1555 PWs)   bands (ev):

   -70.4218 -37.3883 -37.3875 -37.3867  -7.4107   0.4155   1.1363   2.2674
     8.0151  10.1465  11.9180  12.4378

     occupation numbers 
     1.0000   1.0000   1.0000   1.0000   1.0000   1.0000   1.0000   1.0000
     0.0000   0.0000   0.0000   0.0000

          k = 0.4243-0.4243-0.0000 (  1546 PWs)   bands (ev):

   -70.4218 -37.3881 -37.3875 -37.3866  -7.4743   0.4780   1.1463   2.4472
     8.5814  10.2193  11.3951  11.9915

     occupation numbers 
     1.0000   1.0000   1.0000   1.0000   1.0000   1.0000   1.0000   1.0000
     0.0000   0.0000   0.0000   0.0000

          k = 0.0000 0.0000 0.5657 (  1552 PWs)   bands (ev):

   -70.4218 -37.3885 -37.3869 -37.3869  -7.4658   0.3139   2.0243   2.0243
     7.0002   8.6909  13.2045  14.2342

     occupation numbers 
     1.0000   1.0000   1.0000   1.0000   1.0000   1.0000   1.0000   1.0000
     0.0000   0.0000   0.0000   0.0000

          k = 0.6364-0.6364-0.0707 (  1564 PWs)   bands (ev):

   -70.4218 -37.3886 -37.3871 -37.3870  -7.3871   0.2238   1.7611   1.9991
     6.9945   8.8177  13.3426  14.2492

     occupation numbers 
     1.0000   1.0000   1.0000   1.0000   1.0000   1.0000   1.0000   1.0000
     0.0000   0.0000   0.0000   0.0000

          k = 0.5657-0.5657 0.0000 (  1554 PWs)   bands (ev):

   -70.4218 -37.3885 -37.3874 -37.3869  -7.3662   0.3563   1.2781   2.0876
     7.3976   9.4694  12.8945  13.5111

     occupation numbers 
     1.0000   1.0000   1.0000   1.0000   1.0000   1.0000   1.0000   1.0000
     0.0000   0.0000   0.0000   0.0000

          k = 0.0000 0.0000-0.7071 (  1572 PWs)   bands (ev):

   -70.4218 -37.3887 -37.3870 -37.3870  -7.3629   0.1265   1.9404   1.9404
     6.6975   8.5328  14.0683  15.2012

     occupation numbers 
     1.0000   1.0000   1.0000   1.0000   1.0000   1.0000   1.0000   1.0000
     0.0000   0.0000   0.0000   0.0000

          k = 0.0000 0.1414 0.2828 (  1545 PWs)   bands (ev):

   -70.4218 -37.3872 -37.3865 -37.3862  -7.9456   1.2947   2.4058   2.7508
     8.2250   9.9864  10.8258  11.7445

     occupation numbers 
     1.0000   1.0000   1.0000   1.0000   1.0000   1.0000   1.0000   1.0000
     0.0000   0.0000   0.0000   0.0000

          k =-0.0707 0.2121 0.3536 (  1555 PWs)   bands (ev):

   -70.4218 -37.3878 -37.3867 -37.3864  -7.7517   0.6923   2.1265   2.6378
     8.6873   9.9388  10.5312  11.6856

     occupation numbers 
     1.0000   1.0000   1.0000   1.0000   1.0000   1.0000   1.0000   1.0000
     0.0000   0.0000   0.0000   0.0000

          k = 0.5657-0.4243-0.2828 (  1551 PWs)   bands (ev):

   -70.4218 -37.3883 -37.3868 -37.3865  -7.5812   0.2132   1.9777   2.5086
     8.8317   9.5421  11.2342  11.4666

     occupation numbers 
     1.0000   1.0000   1.0000   1.0000   1.0000   1.0000   1.0000   1.0000
     0.0000   0.0000   0.0000   0.0000

          k = 0.4950-0.3536-0.2121 (  1544 PWs)   bands (ev):

   -70.4218 -37.3885 -37.3869 -37.3866  -7.5122   0.0317   1.9339   2.4523
     8.8922   9.3287  11.3140  11.8096

     occupation numbers 
     1.0000   1.0000   1.0000   1.0000   1.0000   1.0000   1.0000   1.0000
     0.0000   0.0000   0.0000   0.0000

          k =-0.0000 0.1414 0.4243 (  1559 PWs)   bands (ev):

   -70.4218 -37.3879 -37.3868 -37.3866  -7.6822   0.7139   2.0536   2.3478
     8.1479   9.5188  10.9107  12.7659

     occupation numbers 
     1.0000   1.0000   1.0000   1.0000   1.0000   1.0000   1.0000   1.0000
     0.0000   0.0000   0.0000   0.0000

          k = 0.6364-0.4950-0.2121 (  1555 PWs)   bands (ev):

   -70.4218 -37.3882 -37.3871 -37.3867  -7.5268   0.4254   1.7162   2.2162
     8.2367   9.8197  10.8397  12.6318

     occupation numbers 
     1.0000   1.0000   1.0000   1.0000   1.0000   1.0000   1.0000   1.0000
     0.0000   0.0000   0.0000   0.0000

          k = 0.5657-0.4243-0.1414 (  1552 PWs)   bands (ev):

   -70.4218 -37.3883 -37.3873 -37.3867  -7.4405   0.3081   1.4324   2.1927
     8.4319   9.9169  11.3260  12.2770

     occupation numbers 
     1.0000   1.0000   1.0000   1.0000   1.0000   1.0000   1.0000   1.0000
     0.0000   0.0000   0.0000   0.0000

          k = 0.4950-0.3536-0.0707 (  1554 PWs)   bands (ev):

   -70.4218 -37.3882 -37.3874 -37.3867  -7.4649   0.3739   1.3425   2.3042
     8.7713   9.8158  11.2481  12.1103

     occupation numbers 
     1.0000   1.0000   1.0000   1.0000   1.0000   1.0000   1.0000   1.0000
     0.0000   0.0000   0.0000   0.0000

          k = 0.4243-0.2828 0.0000 (  1549 PWs)   bands (ev):

   -70.4218 -37.3881 -37.3871 -37.3865  -7.5875   0.5149   1.5967   2.4873
     9.1034   9.7085  10.5158  12.1213

     occupation numbers 
     1.0000   1.0000   1.0000   1.0000   1.0000   1.0000   1.0000   1.0000
     0.0000   0.0000   0.0000   0.0000

          k = 0.7071-0.5657-0.1414 (  1558 PWs)   bands (ev):

   -70.4218 -37.3884 -37.3871 -37.3869  -7.4522   0.3602   1.8010   1.9777
     7.4438   9.1431  12.1319  13.8034

     occupation numbers 
     1.0000   1.0000   1.0000   1.0000   1.0000   1.0000   1.0000   1.0000
     0.0000   0.0000   0.0000   0.0000

          k = 0.6364-0.4950-0.0707 (  1559 PWs)   bands (ev):

   -70.4218 -37.3884 -37.3873 -37.3869  -7.3814   0.3994   1.3641   1.9392
     7.7242   9.6668  11.9703  13.0509

     occupation numbers 
     1.0000   1.0000   1.0000   1.0000   1.0000   1.0000   1.0000   1.0000
     0.0000   0.0000   0.0000   0.0000

          k = 0.5657-0.4243-0.0000 (  1560 PWs)   bands (ev):

   -70.4218 -37.3882 -37.3876 -37.3868  -7.3869   0.5797   0.9798   2.0782
     8.1842  10.2364  11.7160  12.1877

     occupation numbers 
     1.0000   1.0000   1.0000   1.0000   1.0000   1.0000   1.0000   1.0000
     0.0000   0.0000   0.0000   0.0000

          k = 0.0000 0.1414-0.7071 (  1564 PWs)   bands (ev):

   -70.4218 -37.3886 -37.3872 -37.3870  -7.3598   0.2455   1.7128   1.8239
     7.1572   9.0034  13.2955  13.5917

     occupation numbers 
     1.0000   1.0000   1.0000   1.0000   1.0000   1.0000   1.0000   1.0000
     0.0000   0.0000   0.0000   0.0000

          k = 0.7071-0.4243-0.1414 (  1562 PWs)   bands (ev):

   -70.4218 -37.3882 -37.3874 -37.3868  -7.4199   0.4846   1.3171   1.9698
     8.3910  10.2800  10.6246  12.7173

     occupation numbers 
     1.0000   1.0000   1.0000   1.0000   1.0000   1.0000   1.0000   1.0000
     0.0000   0.0000   0.0000   0.0000

          k = 0.6364-0.3536-0.0707 (  1566 PWs)   bands (ev):

   -70.4218 -37.3882 -37.3876 -37.3869  -7.3779   0.5744   1.1151   1.8476
     8.4560  10.3968  11.1062  11.9591

     occupation numbers 
     1.0000   1.0000   1.0000   1.0000   1.0000   1.0000   1.0000   1.0000
     0.0000   0.0000   0.0000   0.0000

          k = 0.0000 0.2828-0.7071 (  1564 PWs)   bands (ev):

   -70.4218 -37.3883 -37.3875 -37.3870  -7.3547   0.5556   1.2425   1.6557
     8.1364  10.2029  11.7640  11.7699

     occupation numbers 
     1.0000   1.0000   1.0000   1.0000   1.0000   1.0000   1.0000   1.0000
     0.0000   0.0000   0.0000   0.0000

     the Fermi energy is     4.7024 ev

!    total energy              =    -149.33486147 Ry
     estimated scf accuracy    <          6.9E-10 Ry
     smearing contrib. (-TS)   =      -0.00000000 Ry
     internal energy E=F+TS    =    -149.33486147 Ry

     The total energy is F=E-TS. E is the sum of the following terms:
     one-electron contribution =    -114.49749562 Ry
     hartree contribution      =      57.62298134 Ry
     xc contribution           =     -25.06011258 Ry
     ewald contribution        =     -67.40023461 Ry

     convergence has been achieved in  12 iterations

     Forces acting on atoms (cartesian axes, Ry/au):

     atom    1 type  1   force =     0.00000000    0.00000000    0.00000000
     atom    2 type  2   force =     0.00000000    0.00000000    0.00000000
     The non-local contrib.  to forces
     atom    1 type  1   force =     0.00000000    0.00000000    0.00000000
     atom    2 type  2   force =     0.00000000    0.00000000    0.00000000
     The ionic contribution  to forces
     atom    1 type  1   force =     0.00000000    0.00000000    0.00000000
     atom    2 type  2   force =    -0.00000000   -0.00000000   -0.00000000
     The local contribution  to forces
     atom    1 type  1   force =     0.00000000    0.00000000    0.00000000
     atom    2 type  2   force =    -0.00000000   -0.00000000    0.00000000
     The core correction contribution to forces
     atom    1 type  1   force =     0.00000000    0.00000000    0.00000000
     atom    2 type  2   force =     0.00000000    0.00000000    0.00000000
     The Hubbard contrib.    to forces
     atom    1 type  1   force =     0.00000000    0.00000000    0.00000000
     atom    2 type  2   force =     0.00000000    0.00000000    0.00000000
     The SCF correction term to forces
     atom    1 type  1   force =    -0.00000000   -0.00000000    0.00000000
     atom    2 type  2   force =     0.00000000    0.00000000    0.00000000

     Total force =     0.000000     Total SCF correction =     0.000000


     Computing stress (Cartesian axis) and pressure

          total   stress  (Ry/bohr**3)                   (kbar)     P=       -0.34
  -0.00000228  -0.00000000  -0.00000000           -0.34       -0.00       -0.00
  -0.00000000  -0.00000228   0.00000000           -0.00       -0.34        0.00
  -0.00000000   0.00000000  -0.00000228           -0.00        0.00       -0.34

     kinetic stress (kbar)   7639.05     -0.00     -0.00
                               -0.00   7639.05      0.00
                               -0.00      0.00   7639.05

     local   stress (kbar)  -6890.97      0.00      0.00
                                0.00  -6890.97      0.00
                                0.00      0.00  -6890.97

     nonloc. stress (kbar)   4244.43     -0.00     -0.00
                               -0.00   4244.43      0.00
                               -0.00      0.00   4244.43

     hartree stress (kbar)   9280.23     -0.00      0.00
                               -0.00   9280.23      0.00
                                0.00      0.00   9280.23

     exc-cor stress (kbar)  -1529.05     -0.00      0.00
                               -0.00  -1529.05     -0.00
                                0.00     -0.00  -1529.05

     corecor stress (kbar)  -1889.15     -0.00      0.00
                               -0.00  -1889.15      0.00
                                0.00      0.00  -1889.15

     ewald   stress (kbar) -10854.86      0.00      0.00
                                0.00 -10854.86      0.00
                                0.00      0.00 -10854.86

     hubbard stress (kbar)      0.00      0.00      0.00
                                0.00      0.00      0.00
                                0.00      0.00      0.00

     DFT-D   stress (kbar)      0.00      0.00      0.00
                                0.00      0.00      0.00
                                0.00      0.00      0.00

     XDM     stress (kbar)      0.00      0.00      0.00
                                0.00      0.00      0.00
                                0.00      0.00      0.00

     dft-nl  stress (kbar)      0.00      0.00      0.00
                                0.00      0.00      0.00
                                0.00      0.00      0.00

     TS-vdW  stress (kbar)      0.00      0.00      0.00
                                0.00      0.00      0.00
                                0.00      0.00      0.00



     Writing output data file dft_out/qe.save/

     init_run     :      1.22s CPU      1.27s WALL (       1 calls)
     electrons    :     28.03s CPU     30.45s WALL (       1 calls)
     forces       :      0.42s CPU      0.43s WALL (       1 calls)
     stress       :      1.14s CPU      1.48s WALL (       1 calls)

     Called by init_run:
     wfcinit      :      0.70s CPU      0.70s WALL (       1 calls)
     wfcinit:atom :      0.02s CPU      0.02s WALL (      47 calls)
     wfcinit:wfcr :      0.64s CPU      0.62s WALL (      47 calls)
     potinit      :      0.02s CPU      0.04s WALL (       1 calls)
     hinit0       :      0.38s CPU      0.37s WALL (       1 calls)

     Called by electrons:
     c_bands      :     22.27s CPU     22.58s WALL (      12 calls)
     sum_band     :      4.38s CPU      5.43s WALL (      12 calls)
     v_of_rho     :      0.30s CPU      0.34s WALL (      13 calls)
     v_h          :      0.02s CPU      0.02s WALL (      13 calls)
     v_xc         :      0.34s CPU      0.38s WALL (      15 calls)
     newd         :      0.83s CPU      1.84s WALL (      13 calls)
     mix_rho      :      0.34s CPU      0.38s WALL (      12 calls)

     Called by c_bands:
     init_us_2    :      0.44s CPU      0.60s WALL (    1269 calls)
     cegterg      :     21.20s CPU     21.13s WALL (     564 calls)

     Called by sum_band:
     sum_band:wei :      0.00s CPU      0.00s WALL (      12 calls)
     sum_band:loo :      3.56s CPU      3.58s WALL (      12 calls)
     sum_band:buf :      0.02s CPU      0.02s WALL (     564 calls)
     sum_band:ini :      0.23s CPU      0.26s WALL (     564 calls)
     sum_band:cal :      0.59s CPU      0.53s WALL (     564 calls)
     sum_band:bec :      0.02s CPU      0.01s WALL (     564 calls)
     addusdens    :      0.81s CPU      1.81s WALL (      12 calls)
     addusd:skk   :      0.00s CPU      0.00s WALL (      24 calls)
     addusd:dgemm :      0.31s CPU      1.12s WALL (      24 calls)
     addusd:qvan2 :      0.44s CPU      0.44s WALL (      24 calls)

     Called by *egterg:
     cdiaghg      :      0.22s CPU      0.26s WALL (    2051 calls)
     cegterg:over :      1.08s CPU      0.93s WALL (    1487 calls)
     cegterg:upda :      0.48s CPU      0.57s WALL (    1487 calls)
     cegterg:last :      1.36s CPU      1.30s WALL (    1098 calls)
     h_psi        :     16.61s CPU     16.73s WALL (    2098 calls)
     s_psi        :      1.58s CPU      1.39s WALL (    2098 calls)
     g_psi        :      0.05s CPU      0.05s WALL (    1487 calls)

     Called by h_psi:
     h_psi:calbec :      1.44s CPU      1.39s WALL (    2098 calls)
     vloc_psi     :     13.59s CPU     13.91s WALL (    2098 calls)
     add_vuspsi   :      1.55s CPU      1.39s WALL (    2098 calls)

     General routines
     calbec       :      2.27s CPU      2.13s WALL (    2897 calls)
     fft          :      0.20s CPU      0.19s WALL (     192 calls)
     ffts         :      0.27s CPU      0.24s WALL (     388 calls)
     fftw         :     14.31s CPU     14.98s WALL (   41464 calls)
     interpolate  :      0.03s CPU      0.02s WALL (      13 calls)

     Parallel routines

     PWSCF        :     30.86s CPU     33.97s WALL


   This run was terminated on:  19:53:17  25Jun2021            

=------------------------------------------------------------------------------=
   JOB DONE.
=------------------------------------------------------------------------------=
