<PP_INFO>
Generated using Vanderbilt code, version   7  3  6                              
Author: kfg        Generation date:   22    9   15                              
Automatically converted from original format                                    
    1        The Pseudo was generated with a Scalar-Relativistic Calculation
  1.60000000000E+00    Local Potential cutoff radius
nl pn  l   occ               Rcut            Rcut US             E pseu
4S  4  0  2.00      0.00000000000      1.50000000000     -7.26885462200
4P  4  1  6.00      0.00000000000      1.50000000000     -4.59074162000
5S  5  0  0.50      0.00000000000      1.50000000000     -0.56649850300
4D  4  2 10.00      0.00000000000      1.70000000000     -0.83647274900
5P  5  1  0.00      0.00000000000      1.50000000000     -0.23894697400
</PP_INFO>


<PP_HEADER>
   0                   Version Number
  Ag                   Element
   US                  Ultrasoft pseudopotential
    T                  Nonlinear Core Correction
SLA  PW   PSX  PSC     PBEsol  Exchange-Correlation functional
   19.00000000000      Z valence
 -295.09748109800      Total energy
    0.00000    0.00000 Suggested cutoff for wfc and rho
    2                  Max angular momentum component
  887                  Number of points in mesh
    5    6             Number of Wavefunctions, Number of Projectors
 Wavefunctions         nl  l   occ
                       4S  0  2.00
                       4P  1  6.00
                       5S  0  0.50
                       4D  2 10.00
                       5P  1  0.00
</PP_HEADER>


<PP_MESH>
  <PP_R>
  0.00000000000E+00  1.21745768857E-09  2.46573546525E-09  3.74561354430E-09
  5.05789189118E-09  6.40339072257E-09  7.78295101905E-09  9.19743505070E-09
  1.06477269161E-08  1.21347330948E-08  1.36593830142E-08  1.52226296301E-08
  1.68254500225E-08  1.84688460062E-08  2.01538447574E-08  2.18814994550E-08
  2.36528899395E-08  2.54691233877E-08  2.73313350044E-08  2.92406887327E-08
  3.11983779808E-08  3.32056263681E-08  3.52636884903E-08  3.73738507031E-08
  3.95374319267E-08  4.17557844697E-08  4.40302948747E-08  4.63623847848E-08
  4.87535118320E-08  5.12051705485E-08  5.37188933010E-08  5.62962512479E-08
  5.89388553219E-08  6.16483572365E-08  6.44264505187E-08  6.72748715671E-08
  7.01954007376E-08  7.31898634561E-08  7.62601313593E-08  7.94081234644E-08
  8.26358073691E-08  8.59452004808E-08  8.93383712781E-08  9.28174406030E-08
  9.63845829872E-08  1.00042028011E-07  1.03792061696E-07  1.07637027936E-07
  1.11579329959E-07  1.15621431834E-07  1.19765860005E-07  1.24015204874E-07
  1.28372122421E-07  1.32839335860E-07  1.37419637347E-07  1.42115889717E-07
  1.46931028282E-07  1.51868062661E-07  1.56930078659E-07  1.62120240203E-07
  1.67441791312E-07  1.72898058128E-07  1.78492450997E-07  1.84228466595E-07
  1.90109690119E-07  1.96139797526E-07  2.02322557829E-07  2.08661835454E-07
  2.15161592655E-07  2.21825891994E-07  2.28658898874E-07  2.35664884147E-07
  2.42848226781E-07  2.50213416600E-07  2.57765057086E-07  2.65507868262E-07
  2.73446689636E-07  2.81586483229E-07  2.89932336679E-07  2.98489466414E-07
  3.07263220921E-07  3.16259084079E-07  3.25482678598E-07  3.34939769524E-07
  3.44636267847E-07  3.54578234193E-07  3.64771882615E-07  3.75223584476E-07
  3.85939872430E-07  3.96927444504E-07  4.08193168290E-07  4.19744085231E-07
  4.31587415026E-07  4.43730560143E-07  4.56181110442E-07  4.68946847922E-07
  4.82035751586E-07  4.95456002423E-07  5.09215988527E-07  5.23324310338E-07
  5.37789786016E-07  5.52621456955E-07  5.67828593430E-07  5.83420700399E-07
  5.99407523435E-07  6.15799054822E-07  6.32605539802E-07  6.49837482975E-07
  6.67505654867E-07  6.85621098659E-07  7.04195137094E-07  7.23239379551E-07
  7.42765729301E-07  7.62786390948E-07  7.83313878058E-07  8.04361020978E-07
  8.25940974858E-07  8.48067227871E-07  8.70753609646E-07  8.94014299910E-07
  9.17863837351E-07  9.42317128707E-07  9.67389458081E-07  9.93096496495E-07
  1.01945431168E-06  1.04647937814E-06  1.07418858742E-06  1.10259925866E-06
  1.13172914947E-06  1.16159646698E-06  1.19221987923E-06  1.22361852685E-06
  1.25581203503E-06  1.28882052574E-06  1.32266463037E-06  1.35736550259E-06
  1.39294483157E-06  1.42942485556E-06  1.46682837574E-06  1.50517877055E-06
  1.54450001023E-06  1.58481667183E-06  1.62615395457E-06  1.66853769561E-06
  1.71199438616E-06  1.75655118807E-06  1.80223595080E-06  1.84907722879E-06
  1.89710429939E-06  1.94634718106E-06  1.99683665222E-06  2.04860427043E-06
  2.10168239213E-06  2.15610419288E-06  2.21190368807E-06  2.26911575421E-06
  2.32777615070E-06  2.38792154220E-06  2.44958952153E-06  2.51281863320E-06
  2.57764839744E-06  2.64411933498E-06  2.71227299231E-06  2.78215196770E-06
  2.85379993777E-06  2.92726168483E-06  3.00258312488E-06  3.07981133626E-06
  3.15899458912E-06  3.24018237557E-06  3.32342544061E-06  3.40877581388E-06
  3.49628684214E-06  3.58601322263E-06  3.67801103725E-06  3.77233778764E-06
  3.86905243108E-06  3.96821541737E-06  4.06988872662E-06  4.17413590794E-06
  4.28102211923E-06  4.39061416783E-06  4.50298055235E-06  4.61819150545E-06
  4.73631903770E-06  4.85743698267E-06  4.98162104301E-06  5.10894883781E-06
  5.23949995108E-06  5.37335598152E-06  5.51060059350E-06  5.65131956938E-06
  5.79560086309E-06  5.94353465514E-06  6.09521340896E-06  6.25073192872E-06
  6.41018741855E-06  6.57367954332E-06  6.74131049094E-06  6.91318503620E-06
  7.08941060629E-06  7.27009734792E-06  7.45535819620E-06  7.64530894518E-06
  7.84006832026E-06  8.03975805239E-06  8.24450295417E-06  8.45443099780E-06
  8.66967339517E-06  8.89036467976E-06  9.11664279082E-06  9.34864915954E-06
  9.58652879744E-06  9.83043038705E-06  1.00805063748E-05  1.03369130663E-05
  1.05998107241E-05  1.08693636678E-05  1.11457403768E-05  1.14291135954E-05
  1.17196604413E-05  1.20175625156E-05  1.23230060167E-05  1.26361818570E-05
  1.29572857813E-05  1.32865184902E-05  1.36240857649E-05  1.39701985957E-05
  1.43250733146E-05  1.46889317298E-05  1.50620012646E-05  1.54445150996E-05
  1.58367123185E-05  1.62388380572E-05  1.66511436575E-05  1.70738868238E-05
  1.75073317842E-05  1.79517494561E-05  1.84074176149E-05  1.88746210680E-05
  1.93536518329E-05  1.98448093194E-05  2.03484005167E-05  2.08647401860E-05
  2.13941510562E-05  2.19369640264E-05  2.24935183724E-05  2.30641619587E-05
  2.36492514561E-05  2.42491525647E-05  2.48642402422E-05  2.54948989384E-05
  2.61415228355E-05  2.68045160944E-05  2.74842931076E-05  2.81812787579E-05
  2.88959086838E-05  2.96286295525E-05  3.03798993383E-05  3.11501876093E-05
  3.19399758207E-05  3.27497576158E-05  3.35800391347E-05  3.44313393303E-05
  3.53041902929E-05  3.61991375829E-05  3.71167405714E-05  3.80575727901E-05
  3.90222222898E-05  4.00112920079E-05  4.10254001451E-05  4.20651805520E-05
  4.31312831253E-05  4.42243742137E-05  4.53451370347E-05  4.64942721016E-05
  4.76724976613E-05  4.88805501429E-05  5.01191846188E-05  5.13891752757E-05
  5.26913158991E-05  5.40264203694E-05  5.53953231702E-05  5.67988799105E-05
  5.82379678588E-05  5.97134864919E-05  6.12263580570E-05  6.27775281482E-05
  6.43679662972E-05  6.59986665796E-05  6.76706482362E-05  6.93849563100E-05
  7.11426622992E-05  7.29448648275E-05  7.47926903299E-05  7.66872937576E-05
  7.86298592995E-05  8.06216011222E-05  8.26637641291E-05  8.47576247388E-05
  8.69044916821E-05  8.91057068208E-05  9.13626459861E-05  9.36767198383E-05
  9.60493747491E-05  9.84820937048E-05  1.00976397234E-04  1.03533844358E-04
  1.06156033564E-04  1.08844603806E-04  1.11601235527E-04  1.14427651713E-04
  1.17325618965E-04  1.20296948607E-04  1.23343497818E-04  1.26467170789E-04
  1.29669919917E-04  1.32953747026E-04  1.36320704614E-04  1.39772897139E-04
  1.43312482334E-04  1.46941672554E-04  1.50662736163E-04  1.54477998945E-04
  1.58389845564E-04  1.62400721052E-04  1.66513132337E-04  1.70729649808E-04
  1.75052908928E-04  1.79485611873E-04  1.84030529228E-04  1.88690501713E-04
  1.93468441964E-04  1.98367336347E-04  2.03390246833E-04  2.08540312902E-04
  2.13820753515E-04  2.19234869119E-04  2.24786043712E-04  2.30477746958E-04
  2.36313536358E-04  2.42297059470E-04  2.48432056191E-04  2.54722361094E-04
  2.61171905823E-04  2.67784721554E-04  2.74564941512E-04  2.81516803556E-04
  2.88644652825E-04  2.95952944458E-04  3.03446246374E-04  3.11129242132E-04
  3.19006733853E-04  3.27083645226E-04  3.35365024584E-04  3.43856048059E-04
  3.52562022816E-04  3.61488390374E-04  3.70640730002E-04  3.80024762211E-04
  3.89646352326E-04  3.99511514155E-04  4.09626413744E-04  4.19997373236E-04
  4.30630874817E-04  4.41533564772E-04  4.52712257638E-04  4.64173940460E-04
  4.75925777165E-04  4.87975113032E-04  5.00329479289E-04  5.12996597817E-04
  5.25984385977E-04  5.39300961560E-04  5.52954647858E-04  5.66953978871E-04
  5.81307704636E-04  5.96024796698E-04  6.11114453720E-04  6.26586107228E-04
  6.42449427509E-04  6.58714329655E-04  6.75390979759E-04  6.92489801270E-04
  7.10021481509E-04  7.27996978346E-04  7.46427527052E-04  7.65324647320E-04
  7.84700150465E-04  8.04566146807E-04  8.24935053241E-04  8.45819600996E-04
  8.67232843595E-04  8.89188165011E-04  9.11699288035E-04  9.34780282851E-04
  9.58445575833E-04  9.82709958559E-04  1.00758859706E-03  1.03309704129E-03
  1.05925123486E-03  1.08606752499E-03  1.11356267275E-03  1.14175386347E-03
  1.17065871760E-03  1.20029530158E-03  1.23068213926E-03  1.26183822340E-03
  1.29378302757E-03  1.32653651830E-03  1.36011916760E-03  1.39455196572E-03
  1.42985643426E-03  1.46605463969E-03  1.50316920704E-03  1.54122333415E-03
  1.58024080606E-03  1.62024600998E-03  1.66126395046E-03  1.70332026505E-03
  1.74644124031E-03  1.79065382825E-03  1.83598566319E-03  1.88246507899E-03
  1.93012112681E-03  1.97898359322E-03  2.02908301885E-03  2.08045071749E-03
  2.13311879560E-03  2.18712017247E-03  2.24248860069E-03  2.29925868735E-03
  2.35746591559E-03  2.41714666684E-03  2.47833824349E-03  2.54107889228E-03
  2.60540782816E-03  2.67136525880E-03  2.73899240975E-03  2.80833155018E-03
  2.87942601930E-03  2.95232025348E-03  3.02705981398E-03  3.10369141546E-03
  3.18226295518E-03  3.26282354288E-03  3.34542353158E-03  3.43011454894E-03
  3.51694952962E-03  3.60598274830E-03  3.69726985364E-03  3.79086790305E-03
  3.88683539837E-03  3.98523232239E-03  4.08612017641E-03  4.18956201861E-03
  4.29562250352E-03  4.40436792238E-03  4.51586624462E-03  4.63018716034E-03
  4.74740212381E-03  4.86758439821E-03  4.99080910137E-03  5.11715325274E-03
  5.24669582154E-03  5.37951777607E-03  5.51570213439E-03  5.65533401616E-03
  5.79850069584E-03  5.94529165728E-03  6.09579864959E-03  6.25011574456E-03
  6.40833939538E-03  6.57056849699E-03  6.73690444786E-03  6.90745121338E-03
  7.08231539082E-03  7.26160627599E-03  7.44543593153E-03  7.63391925695E-03
  7.82717406047E-03  8.02532113263E-03  8.22848432181E-03  8.43679061161E-03
  8.65037020024E-03  8.86935658190E-03  9.09388663020E-03  9.32410068373E-03
  9.56014263378E-03  9.80216001425E-03  1.00503040939E-02  1.03047299708E-02
  1.05655966694E-02  1.08330672400E-02  1.11073088602E-02  1.13884929402E-02
  1.16767952290E-02  1.19723959251E-02  1.22754797883E-02  1.25862362561E-02
  1.29048595613E-02  1.32315488539E-02  1.35665083254E-02  1.39099473362E-02
  1.42620805469E-02  1.46231280524E-02  1.49933155189E-02  1.53728743258E-02
  1.57620417096E-02  1.61610609127E-02  1.65701813349E-02  1.69896586900E-02
  1.74197551649E-02  1.78607395838E-02  1.83128875765E-02  1.87764817501E-02
  1.92518118661E-02  1.97391750213E-02  2.02388758334E-02  2.07512266319E-02
  2.12765476526E-02  2.18151672382E-02  2.23674220435E-02  2.29336572459E-02
  2.35142267606E-02  2.41094934625E-02  2.47198294127E-02  2.53456160911E-02
  2.59872446347E-02  2.66451160822E-02  2.73196416246E-02  2.80112428625E-02
  2.87203520691E-02  2.94474124607E-02  3.01928784737E-02  3.09572160487E-02
  3.17409029215E-02  3.25444289220E-02  3.33682962800E-02  3.42130199395E-02
  3.50791278802E-02  3.59671614479E-02  3.68776756923E-02  3.78112397146E-02
  3.87684370226E-02  3.97498658958E-02  4.07561397592E-02  4.17878875668E-02
  4.28457541945E-02  4.39304008433E-02  4.50425054528E-02  4.61827631246E-02
  4.73518865567E-02  4.85506064894E-02  4.97796721616E-02  5.10398517795E-02
  5.23319329963E-02  5.36567234049E-02  5.50150510423E-02  5.64077649075E-02
  5.78357354921E-02  5.92998553242E-02  6.08010395263E-02  6.23402263873E-02
  6.39183779493E-02  6.55364806083E-02  6.71955457311E-02  6.88966102874E-02
  7.06407374980E-02  7.24290174992E-02  7.42625680241E-02  7.61425351015E-02
  7.80700937721E-02  8.00464488228E-02  8.20728355397E-02  8.41505204807E-02
  8.62808022663E-02  8.84650123921E-02  9.07045160604E-02  9.30007130341E-02
  9.53550385108E-02  9.77689640208E-02  1.00243998346E-01  1.02781688463E-01
  1.05383620512E-01  1.08051420784E-01  1.10786756741E-01  1.13591338058E-01
  1.16466917689E-01  1.19415292965E-01  1.22438306717E-01  1.25537848425E-01
  1.28715855406E-01  1.31974314016E-01  1.35315260899E-01  1.38740784255E-01
  1.42253025148E-01  1.45854178842E-01  1.49546496176E-01  1.53332284968E-01
  1.57213911460E-01  1.61193801794E-01  1.65274443531E-01  1.69458387206E-01
  1.73748247920E-01  1.78146706974E-01  1.82656513550E-01  1.87280486423E-01
  1.92021515726E-01  1.96882564757E-01  2.01866671830E-01  2.06976952175E-01
  2.12216599883E-01  2.17588889903E-01  2.23097180094E-01  2.28744913314E-01
  2.34535619581E-01  2.40472918276E-01  2.46560520402E-01  2.52802230910E-01
  2.59201951072E-01  2.65763680921E-01  2.72491521752E-01  2.79389678684E-01
  2.86462463291E-01  2.93714296292E-01  3.01149710320E-01  3.08773352750E-01
  3.16589988607E-01  3.24604503543E-01  3.32821906891E-01  3.41247334794E-01
  3.49886053421E-01  3.58743462250E-01  3.67825097452E-01  3.77136635343E-01
  3.86683895939E-01  3.96472846587E-01  4.06509605700E-01  4.16800446580E-01
  4.27351801337E-01  4.38170264912E-01  4.49262599196E-01  4.60635737259E-01
  4.72296787683E-01  4.84253039004E-01  4.96511964268E-01  5.09081225703E-01
  5.21968679506E-01  5.35182380755E-01  5.48730588444E-01  5.62621770643E-01
  5.76864609794E-01  5.91468008135E-01  6.06441093265E-01  6.21793223849E-01
  6.37533995470E-01  6.53673246621E-01  6.70221064860E-01  6.87187793112E-01
  7.04584036135E-01  7.22420667147E-01  7.40708834623E-01  7.59459969262E-01
  7.78685791135E-01  7.98398317006E-01  8.18609867845E-01  8.39333076529E-01
  8.60580895739E-01  8.82366606053E-01  9.04703824250E-01  9.27606511817E-01
  9.51088983680E-01  9.75165917149E-01  9.99852361090E-01  1.02516374534E+00
  1.05111589032E+00  1.07772501699E+00  1.10500775690E+00  1.13298116267E+00
  1.16166271857E+00  1.19107035152E+00  1.22122244224E+00  1.25213783677E+00
  1.28383585823E+00  1.31633631894E+00  1.34965953272E+00  1.38382632767E+00
  1.41885805916E+00  1.45477662315E+00  1.49160446992E+00  1.52936461807E+00
  1.56808066892E+00  1.60777682126E+00  1.64847788649E+00  1.69020930408E+00
  1.73299715755E+00  1.77686819067E+00  1.82184982430E+00  1.86797017339E+00
  1.91525806468E+00  1.96374305465E+00  2.01345544797E+00  2.06442631652E+00
  2.11668751876E+00  2.17027171962E+00  2.22521241100E+00  2.28154393259E+00
  2.33930149344E+00  2.39852119391E+00  2.45924004823E+00  2.52149600767E+00
  2.58532798422E+00  2.65077587495E+00  2.71788058693E+00  2.78668406278E+00
  2.85722930691E+00  2.92956041239E+00  3.00372258854E+00  3.07976218910E+00
  3.15772674132E+00  3.23766497558E+00  3.31962685587E+00  3.40366361104E+00
  3.48982776680E+00  3.57817317854E+00  3.66875506503E+00  3.76163004290E+00
  3.85685616202E+00  3.95449294182E+00  4.05460140847E+00  4.15724413303E+00
  4.26248527052E+00  4.37039060009E+00  4.48102756609E+00  4.59446532022E+00
  4.71077476476E+00  4.83002859691E+00  4.95230135420E+00  5.07766946107E+00
  5.20621127668E+00  5.33800714384E+00  5.47313943926E+00  5.61169262503E+00
  5.75375330140E+00  5.89941026091E+00  6.04875454391E+00  6.20187949543E+00
  6.35888082355E+00  6.51985665921E+00  6.68490761756E+00  6.85413686081E+00
  7.02765016275E+00  7.20555597484E+00  7.38796549401E+00  7.57499273214E+00
  7.76675458734E+00  7.96337091702E+00  8.16496461278E+00  8.37166167725E+00
  8.58359130282E+00  8.80088595240E+00  9.02368144222E+00  9.25211702672E+00
  9.48633548558E+00  9.72648321295E+00  9.97271030898E+00  1.02251706736E+01
  1.04840221028E+01  1.07494263872E+01  1.10215494129E+01  1.13005612659E+01
  1.15866363376E+01  1.18799534341E+01  1.21806958884E+01  1.24890516741E+01
  1.28052135237E+01  1.31293790486E+01  1.34617508628E+01  1.38025367096E+01
  1.41519495911E+01  1.45102079019E+01  1.48775355650E+01  1.52541621722E+01
  1.56403231273E+01  1.60362597935E+01  1.64422196441E+01  1.68584564173E+01
  1.72852302746E+01  1.77228079635E+01  1.81714629844E+01  1.86314757612E+01
  1.91031338168E+01  1.95867319530E+01  2.00825724343E+01  2.05909651771E+01
  2.11122279435E+01  2.16466865397E+01  2.21946750196E+01  2.27565358939E+01
  2.33326203440E+01  2.39232884414E+01  2.45289093728E+01  2.51498616712E+01
  2.57865334517E+01  2.64393226552E+01  2.71086372960E+01  2.77948957176E+01
  2.84985268539E+01  2.92199704972E+01  2.99596775733E+01  3.07181104231E+01
  3.14957430920E+01  3.22930616256E+01  3.31105643740E+01  3.39487623030E+01
  3.48081793135E+01  3.56893525693E+01  3.65928328322E+01  3.75191848069E+01
  3.84689874935E+01  3.94428345496E+01  4.04413346613E+01  4.14651119236E+01
  4.25148062307E+01  4.35910736757E+01  4.46945869608E+01  4.58260358178E+01
  4.69861274389E+01  4.81755869192E+01  4.93951577096E+01  5.06456020815E+01
  5.19277016035E+01  5.32422576294E+01  5.45900917995E+01  5.59720465540E+01
  5.73889856597E+01  5.88417947497E+01  6.03313818769E+01  6.18586780817E+01
  6.34246379741E+01  6.50302403298E+01  6.66764887027E+01  6.83644120516E+01
  7.00950653835E+01  7.18695304130E+01  7.36889162387E+01  7.55543600358E+01
  7.74670277675E+01  7.94281149133E+01  8.14388472166E+01  8.35004814505E+01
  8.56143062034E+01  8.77816426848E+01  9.00038455504E+01  9.22823037494E+01
  9.46184413923E+01  9.70137186412E+01  9.94696326224E+01  1.01987718362E+02
  1.04569549746E+02  1.07216740502E+02  1.09930945211E+02  1.12713860340E+02
  1.15567225300E+02  1.18492823538E+02  1.21492483649E+02  1.24568080516E+02
  1.27721536489E+02  1.30954822580E+02  1.34269959698E+02  1.37669019912E+02
  1.41154127745E+02  1.44727461503E+02  1.48391254635E+02  1.52147797132E+02
  1.55999436955E+02  1.59948581505E+02  1.63997699124E+02  1.68149320645E+02
  1.72406040964E+02  1.76770520672E+02  1.81245487709E+02  1.85833739076E+02
  1.90538142579E+02  1.95361638624E+02  2.00307242053E+02
  </PP_R>
  <PP_RAB>
  1.20230287605E-09  1.23273931827E-09  1.26394626269E-09  1.29594321466E-09
  1.32875017333E-09  1.36238764412E-09  1.39687665153E-09  1.43223875232E-09
  1.46849604896E-09  1.50567120342E-09  1.54378745141E-09  1.58286861681E-09
  1.62293912662E-09  1.66402402621E-09  1.70614899499E-09  1.74934036243E-09
  1.79362512454E-09  1.83903096075E-09  1.88558625116E-09  1.93332009437E-09
  1.98226232557E-09  2.03244353526E-09  2.08389508831E-09  2.13664914363E-09
  2.19073867422E-09  2.24619748780E-09  2.30306024792E-09  2.36136249567E-09
  2.42114067185E-09  2.48243213977E-09  2.54527520858E-09  2.60970915725E-09
  2.67577425910E-09  2.74351180697E-09  2.81296413902E-09  2.88417466523E-09
  2.95718789449E-09  3.03204946246E-09  3.10880616004E-09  3.18750596266E-09
  3.26819806028E-09  3.35093288807E-09  3.43576215801E-09  3.52273889113E-09
  3.61191745073E-09  3.70335357632E-09  3.79710441845E-09  3.89322857445E-09
  3.99178612504E-09  4.09283867190E-09  4.19644937617E-09  4.30268299790E-09
  4.41160593657E-09  4.52328627256E-09  4.63779380972E-09  4.75520011898E-09
  4.87557858311E-09  4.99900444257E-09  5.12555484253E-09  5.25530888113E-09
  5.38834765885E-09  5.52475432926E-09  5.66461415097E-09  5.80801454093E-09
  5.95504512904E-09  6.10579781421E-09  6.26036682177E-09  6.41884876239E-09
  6.58134269244E-09  6.74795017591E-09  6.91877534791E-09  7.09392497972E-09
  7.27350854557E-09  7.45763829104E-09  7.64642930321E-09  7.83999958260E-09
  8.03847011694E-09  8.24196495679E-09  8.45061129303E-09  8.66453953641E-09
  8.88388339907E-09  9.10877997804E-09  9.33936984101E-09  9.57579711416E-09
  9.81820957222E-09  1.00667587309E-08  1.03215999414E-08  1.05828924880E-08
  1.08507996868E-08  1.11254889887E-08  1.14071320833E-08  1.16959050068E-08
  1.19919882517E-08  1.22955668796E-08  1.26068306371E-08  1.29259740741E-08
  1.32531966657E-08  1.35887029366E-08  1.39327025892E-08  1.42854106345E-08
  1.46470475265E-08  1.50178392999E-08  1.53980177118E-08  1.57878203860E-08
  1.61874909619E-08  1.65972792466E-08  1.70174413711E-08  1.74482399504E-08
  1.78899442477E-08  1.83428303425E-08  1.88071813034E-08  1.92832873648E-08
  1.97714461086E-08  2.02719626498E-08  2.07851498275E-08  2.13113284005E-08
  2.18508272475E-08  2.24039835728E-08  2.29711431172E-08  2.35526603738E-08
  2.41488988098E-08  2.47602310937E-08  2.53870393281E-08  2.60297152884E-08
  2.66886606682E-08  2.73642873296E-08  2.80570175614E-08  2.87672843426E-08
  2.94955316129E-08  3.02422145506E-08  3.10077998568E-08  3.17927660474E-08
  3.25976037517E-08  3.34228160195E-08  3.42689186353E-08  3.51364404408E-08
  3.60259236653E-08  3.69379242649E-08  3.78730122696E-08  3.88317721399E-08
  3.98148031318E-08  4.08227196717E-08  4.18561517403E-08  4.29157452663E-08
  4.40021625301E-08  4.51160825779E-08  4.62582016460E-08  4.74292335959E-08
  4.86299103607E-08  4.98609824026E-08  5.11232191816E-08  5.24174096368E-08
  5.37443626793E-08  5.51049076980E-08  5.64998950779E-08  5.79301967314E-08
  5.93967066437E-08  6.09003414311E-08  6.24420409144E-08  6.40227687060E-08
  6.56435128121E-08  6.73052862505E-08  6.90091276839E-08  7.07561020685E-08
  7.25473013202E-08  7.43838449969E-08  7.62668809980E-08  7.81975862825E-08
  8.01771676040E-08  8.22068622652E-08  8.42879388914E-08  8.64216982231E-08
  8.86094739296E-08  9.08526334417E-08  9.31525788073E-08  9.55107475669E-08
  9.79286136530E-08  1.00407688310E-07  1.02949521042E-07  1.05555700575E-07
  1.08227855857E-07  1.10967657072E-07  1.13776816685E-07  1.16657090512E-07
  1.19610278819E-07  1.22638227443E-07  1.25742828951E-07  1.28926023821E-07
  1.32189801653E-07  1.35536202414E-07  1.38967317714E-07  1.42485292111E-07
  1.46092324453E-07  1.49790669254E-07  1.53582638100E-07  1.57470601094E-07
  1.61456988340E-07  1.65544291459E-07  1.69735065150E-07  1.74031928781E-07
  1.78437568033E-07  1.82954736574E-07  1.87586257781E-07  1.92335026505E-07
  1.97204010882E-07  2.02196254186E-07  2.07314876730E-07  2.12563077821E-07
  2.17944137755E-07  2.23461419870E-07  2.29118372647E-07  2.34918531865E-07
  2.40865522812E-07  2.46963062552E-07  2.53214962246E-07  2.59625129534E-07
  2.66197570979E-07  2.72936394572E-07  2.79845812296E-07  2.86930142762E-07
  2.94193813908E-07  3.01641365765E-07  3.09277453295E-07  3.17106849300E-07
  3.25134447409E-07  3.33365265132E-07  3.41804446998E-07  3.50457267769E-07
  3.59329135741E-07  3.68425596121E-07  3.77752334491E-07  3.87315180367E-07
  3.97120110839E-07  4.07173254307E-07  4.17480894314E-07  4.28049473471E-07
  4.38885597482E-07  4.49996039279E-07  4.61387743248E-07  4.73067829577E-07
  4.85043598699E-07  4.97322535860E-07  5.09912315795E-07  5.22820807526E-07
  5.36056079281E-07  5.49626403536E-07  5.63540262185E-07  5.77806351842E-07
  5.92433589279E-07  6.07431116994E-07  6.22808308931E-07  6.38574776336E-07
  6.54740373762E-07  6.71315205236E-07  6.88309630567E-07  7.05734271823E-07
  7.23600019972E-07  7.41918041689E-07  7.60699786334E-07  7.79956993108E-07
  7.99701698392E-07  8.19946243271E-07  8.40703281243E-07  8.61985786133E-07
  8.83807060199E-07  9.06180742448E-07  9.29120817160E-07  9.52641622628E-07
  9.76757860122E-07  1.00148460307E-06  1.02683730650E-06  1.05283181668E-06
  1.07948438101E-06  1.10681165822E-06  1.13483072874E-06  1.16355910542E-06
  1.19301474441E-06  1.22321605645E-06  1.25418191835E-06  1.28593168477E-06
  1.31848520035E-06  1.35186281211E-06  1.38608538213E-06  1.42117430064E-06
  1.45715149934E-06  1.49403946517E-06  1.53186125430E-06  1.57064050658E-06
  1.61040146031E-06  1.65116896737E-06  1.69296850878E-06  1.73582621063E-06
  1.77976886036E-06  1.82482392356E-06  1.87101956112E-06  1.91838464682E-06
  1.96694878536E-06  2.01674233093E-06  2.06779640610E-06  2.12014292134E-06
  2.17381459493E-06  2.22884497340E-06  2.28526845253E-06  2.34312029883E-06
  2.40243667160E-06  2.46325464550E-06  2.52561223373E-06  2.58954841182E-06
  2.65510314197E-06  2.72231739802E-06  2.79123319105E-06  2.86189359570E-06
  2.93434277700E-06  3.00862601806E-06  3.08478974832E-06  3.16288157259E-06
  3.24295030081E-06  3.32504597853E-06  3.40921991822E-06  3.49552473135E-06
  3.58401436122E-06  3.67474411673E-06  3.76777070694E-06  3.86315227650E-06
  3.96094844198E-06  4.06122032918E-06  4.16403061129E-06  4.26944354808E-06
  4.37752502607E-06  4.48834259971E-06  4.60196553357E-06  4.71846484571E-06
  4.83791335197E-06  4.96038571156E-06  5.08595847369E-06  5.21471012544E-06
  5.34672114076E-06  5.48207403085E-06  5.62085339567E-06  5.76314597683E-06
  5.90904071183E-06  6.05862878963E-06  6.21200370766E-06  6.36926133021E-06
  6.53049994844E-06  6.69582034172E-06  6.86532584068E-06  7.03912239178E-06
  7.21731862351E-06  7.40002591433E-06  7.58735846223E-06  7.77943335617E-06
  7.97637064919E-06  8.17829343352E-06  8.38532791748E-06  8.59760350434E-06
  8.81525287328E-06  9.03841206222E-06  9.26722055292E-06  9.50182135815E-06
  9.74236111103E-06  9.98899015675E-06  1.02418626465E-05  1.05011366338E-05
  1.07669741733E-05  1.10395414222E-05  1.13190087438E-05  1.16055508144E-05
  1.18993467320E-05  1.22005801287E-05  1.25094392851E-05  1.28261172483E-05
  1.31508119523E-05  1.34837263419E-05  1.38250684993E-05  1.41750517747E-05
  1.45338949188E-05  1.49018222203E-05  1.52790636459E-05  1.56658549836E-05
  1.60624379906E-05  1.64690605442E-05  1.68859767968E-05  1.73134473346E-05
  1.77517393406E-05  1.82011267615E-05  1.86618904792E-05  1.91343184859E-05
  1.96187060645E-05  2.01153559730E-05  2.06245786339E-05  2.11466923278E-05
  2.16820233927E-05  2.22309064281E-05  2.27936845037E-05  2.33707093742E-05
  2.39623416987E-05  2.45689512669E-05  2.51909172293E-05  2.58286283351E-05
  2.64824831744E-05  2.71528904277E-05  2.78402691215E-05  2.85450488898E-05
  2.92676702428E-05  3.00085848424E-05  3.07682557845E-05  3.15471578880E-05
  3.23457779921E-05  3.31646152605E-05  3.40041814929E-05  3.48650014458E-05
  3.57476131594E-05  3.66525682950E-05  3.75804324790E-05  3.85317856565E-05
  3.95072224544E-05  4.05073525525E-05  4.15328010644E-05  4.25842089291E-05
  4.36622333106E-05  4.47675480092E-05  4.59008438826E-05  4.70628292777E-05
  4.82542304731E-05  4.94757921333E-05  5.07282777742E-05  5.20124702401E-05
  5.33291721930E-05  5.46792066145E-05  5.60634173201E-05  5.74826694866E-05
  5.89378501927E-05  6.04298689738E-05  6.19596583902E-05  6.35281746100E-05
  6.51363980069E-05  6.67853337730E-05  6.84760125467E-05  7.02094910574E-05
  7.19868527854E-05  7.38092086399E-05  7.56776976524E-05  7.75934876895E-05
  7.95577761823E-05  8.15717908750E-05  8.36367905924E-05  8.57540660265E-05
  8.79249405434E-05  9.01507710104E-05  9.24329486439E-05  9.47728998792E-05
  9.71720872621E-05  9.96320103627E-05  1.02154206713E-04  1.04740252768E-04
  1.07391764891E-04  1.10110400362E-04  1.12897858418E-04  1.15755881311E-04
  1.18686255398E-04  1.21690812258E-04  1.24771429837E-04  1.27930033621E-04
  1.31168597841E-04  1.34489146705E-04  1.37893755663E-04  1.41384552707E-04
  1.44963719699E-04  1.48633493735E-04  1.52396168543E-04  1.56254095917E-04
  1.60209687187E-04  1.64265414728E-04  1.68423813499E-04  1.72687482637E-04
  1.77059087073E-04  1.81541359203E-04  1.86137100591E-04  1.90849183727E-04
  1.95680553815E-04  2.00634230619E-04  2.05713310348E-04  2.10920967593E-04
  2.16260457309E-04  2.21735116850E-04  2.27348368058E-04  2.33103719396E-04
  2.39004768147E-04  2.45055202659E-04  2.51258804649E-04  2.57619451572E-04
  2.64141119038E-04  2.70827883302E-04  2.77683923809E-04  2.84713525808E-04
  2.91921083029E-04  2.99311100429E-04  3.06888197011E-04  3.14657108706E-04
  3.22622691337E-04  3.30789923652E-04  3.39163910437E-04  3.47749885707E-04
  3.56553215976E-04  3.65579403612E-04  3.74834090276E-04  3.84323060448E-04
  3.94052245043E-04  4.04027725120E-04  4.14255735676E-04  4.24742669553E-04
  4.35495081424E-04  4.46519691899E-04  4.57823391715E-04  4.69413246056E-04
  4.81296498955E-04  4.93480577834E-04  5.05973098139E-04  5.18781868100E-04
  5.31914893617E-04  5.45380383258E-04  5.59186753392E-04  5.73342633449E-04
  5.87856871317E-04  6.02738538865E-04  6.17996937621E-04  6.33641604581E-04
  6.49682318170E-04  6.66129104357E-04  6.82992242919E-04  7.00282273866E-04
  7.18010004030E-04  7.36186513820E-04  7.54823164145E-04  7.73931603520E-04
  7.93523775341E-04  8.13611925353E-04  8.34208609303E-04  8.55326700790E-04
  8.76979399309E-04  8.99180238500E-04  9.21943094610E-04  9.45282195167E-04
  9.69212127867E-04  9.93747849698E-04  1.01890469628E-03  1.04469839147E-03
  1.07114505717E-03  1.09826122339E-03  1.12606383862E-03  1.15457028042E-03
  1.18379836622E-03  1.21376636454E-03  1.24449300634E-03  1.27599749679E-03
  1.30829952721E-03  1.34141928742E-03  1.37537747836E-03  1.41019532499E-03
  1.44589458961E-03  1.48249758541E-03  1.52002719046E-03  1.55850686199E-03
  1.59796065104E-03  1.63841321751E-03  1.67988984558E-03  1.72241645949E-03
  1.76601963975E-03  1.81072663978E-03  1.85656540291E-03  1.90356457984E-03
  1.95175354661E-03  2.00116242287E-03  2.05182209080E-03  2.10376421432E-03
  2.15702125896E-03  2.21162651210E-03  2.26761410381E-03  2.32501902815E-03
  2.38387716507E-03  2.44422530282E-03  2.50610116095E-03  2.56954341389E-03