<PP_INFO>
Generated using Vanderbilt code, version   7  3  6                              
Author: kfg    Generation date:   23    7 2013                              
Automatically converted from original format                                    
    1        The Pseudo was generated with a Scalar-Relativistic Calculation
  2.20000000000E+00    Local Potential cutoff radius
nl pn  l   occ               Rcut            Rcut US             E pseu
6S  6  0  1.00      0.00000000000      2.30000000000     -0.42630018200
5D  5  2 10.00      0.00000000000      2.10000000000     -0.50729064100
6P  6  1  0.00      0.00000000000      2.35000000000     -0.05160411900
</PP_INFO>


<PP_HEADER>
   0                   Version Number
  Au                   Element
   US                  Ultrasoft pseudopotential
    T                  Nonlinear Core Correction
SLA  PW   PSX  PSC     PBEsol  Exchange-Correlation functional
   11.00000000000      Z valence
 -114.46117747800      Total energy
    0.00000    0.00000 Suggested cutoff for wfc and rho
    3                  Max angular momentum component
  985                  Number of points in mesh
    3    7             Number of Wavefunctions, Number of Projectors
 Wavefunctions         nl  l   occ
                       6S  0  1.00
                       5D  2 10.00
                       6P  1  0.00
</PP_HEADER>


<PP_MESH>
  <PP_R>
  0.00000000000E+00  1.93992273245E-07  3.91244844727E-07  5.91812508095E-07
  7.95750977878E-07  1.00311690496E-06  1.21396789233E-06  1.42836251105E-06
  1.64636031657E-06  1.86802186523E-06  2.09340873111E-06  2.32258352312E-06
  2.55560990241E-06  2.79255260001E-06  3.03347743487E-06  3.27845133211E-06
  3.52754234160E-06  3.78081965689E-06  4.03835363442E-06  4.30021581306E-06
  4.56647893399E-06  4.83721696090E-06  5.11250510054E-06  5.39241982361E-06
  5.67703888599E-06  5.96644135037E-06  6.26070760818E-06  6.55991940194E-06
  6.86415984796E-06  7.17351345944E-06  7.48806616991E-06  7.80790535716E-06
  8.13311986747E-06  8.46380004027E-06  8.80003773332E-06  9.14192634812E-06
  9.48956085594E-06  9.84303782415E-06  1.02024554431E-05  1.05679135532E-05
  1.09395136732E-05  1.13173590275E-05  1.17015545756E-05  1.20922070411E-05
  1.24894249410E-05  1.28933186161E-05  1.33040002618E-05  1.37215839589E-05
  1.41461857056E-05  1.45779234495E-05  1.50169171206E-05  1.54632886643E-05
  1.59171620757E-05  1.63786634336E-05  1.68479209358E-05  1.73250649347E-05
  1.78102279732E-05  1.83035448220E-05  1.88051525167E-05  1.93151903961E-05
  1.98338001407E-05  2.03611258119E-05  2.08973138926E-05  2.14425133273E-05
  2.19968755638E-05  2.25605545952E-05  2.31337070027E-05  2.37164919989E-05
  2.43090714723E-05  2.49116100321E-05  2.55242750540E-05  2.61472367266E-05
  2.67806680990E-05  2.74247451283E-05  2.80796467289E-05  2.87455548222E-05
  2.94226543869E-05  3.01111335107E-05  3.08111834420E-05  3.15229986437E-05
  3.22467768470E-05  3.29827191058E-05  3.37310298534E-05  3.44919169586E-05
  3.52655917839E-05  3.60522692439E-05  3.68521678653E-05  3.76655098471E-05
  3.84925211230E-05  3.93334314237E-05  4.01884743406E-05  4.10578873914E-05
  4.19419120851E-05  4.28407939898E-05  4.37547828009E-05  4.46841324099E-05
  4.56291009754E-05  4.65899509949E-05  4.75669493772E-05  4.85603675172E-05
  4.95704813706E-05  5.05975715312E-05  5.16419233083E-05  5.27038268064E-05
  5.37835770056E-05  5.48814738434E-05  5.59978222981E-05  5.71329324738E-05
  5.82871196862E-05  5.94607045501E-05  6.06540130690E-05  6.18673767252E-05
  6.31011325718E-05  6.43556233268E-05  6.56311974679E-05  6.69282093294E-05
  6.82470192008E-05  6.95879934266E-05  7.09515045083E-05  7.23379312077E-05
  7.37476586523E-05  7.51810784421E-05  7.66385887584E-05  7.81205944747E-05
  7.96275072686E-05  8.11597457368E-05  8.27177355110E-05  8.43019093761E-05
  8.59127073905E-05  8.75505770085E-05  8.92159732045E-05  9.09093585991E-05
  9.26312035882E-05  9.43819864730E-05  9.61621935934E-05  9.79723194629E-05
  9.98128669057E-05  1.01684347197E-04  1.03587280204E-04  1.05522194532E-04
  1.07489627670E-04  1.09490126139E-04  1.11524245646E-04  1.13592551238E-04
  1.15695617457E-04  1.17834028501E-04  1.20008378388E-04  1.22219271118E-04
  1.24467320841E-04  1.26753152031E-04  1.29077399654E-04  1.31440709352E-04
  1.33843737612E-04  1.36287151960E-04  1.38771631136E-04  1.41297865291E-04
  1.43866556171E-04  1.46478417319E-04  1.49134174268E-04  1.51834564746E-04
  1.54580338878E-04  1.57372259398E-04  1.60211101856E-04  1.63097654839E-04
  1.66032720185E-04  1.69017113208E-04  1.72051662927E-04  1.75137212291E-04
  1.78274618417E-04  1.81464752827E-04  1.84708501689E-04  1.88006766067E-04
  1.91360462166E-04  1.94770521589E-04  1.98237891598E-04  2.01763535372E-04
  2.05348432281E-04  2.08993578151E-04  2.12699985547E-04  2.16468684051E-04
  2.20300720547E-04  2.24197159514E-04  2.28159083321E-04  2.32187592530E-04
  2.36283806194E-04  2.40448862179E-04  2.44683917472E-04  2.48990148502E-04
  2.53368751474E-04  2.57820942694E-04  2.62347958911E-04  2.66951057657E-04
  2.71631517603E-04  2.76390638904E-04  2.81229743570E-04  2.86150175829E-04
  2.91153302497E-04  2.96240513365E-04  3.01413221580E-04  3.06672864037E-04
  3.12020901784E-04  3.17458820420E-04  3.22988130514E-04  3.28610368019E-04
  3.34327094706E-04  3.40139898589E-04  3.46050394376E-04  3.52060223907E-04
  3.58171056619E-04  3.64384590005E-04  3.70702550086E-04  3.77126691891E-04
  3.83658799945E-04  3.90300688766E-04  3.97054203365E-04  4.03921219761E-04
  4.10903645503E-04  4.18003420200E-04  4.25222516056E-04  4.32562938421E-04
  4.40026726351E-04  4.47615953166E-04  4.55332727034E-04  4.63179191553E-04
  4.71157526348E-04  4.79269947673E-04  4.87518709031E-04  4.95906101798E-04
  5.04434455858E-04  5.13106140255E-04  5.21923563845E-04  5.30889175968E-04
  5.40005467131E-04  5.49274969695E-04  5.58700258582E-04  5.68283951988E-04
  5.78028712112E-04  5.87937245893E-04  5.98012305768E-04  6.08256690427E-04
  6.18673245599E-04  6.29264864839E-04  6.40034490331E-04  6.50985113707E-04
  6.62119776878E-04  6.73441572877E-04  6.84953646720E-04  6.96659196279E-04
  7.08561473171E-04  7.20663783662E-04  7.32969489581E-04  7.45482009259E-04
  7.58204818477E-04  7.71141451430E-04  7.84295501710E-04  7.97670623306E-04
  8.11270531614E-04  8.25099004474E-04  8.39159883218E-04  8.53457073735E-04
  8.67994547560E-04  8.82776342973E-04  8.97806566124E-04  9.13089392170E-04
  9.28629066440E-04  9.44429905610E-04  9.60496298904E-04  9.76832709311E-04
  9.93443674829E-04  1.01033380972E-03  1.02750780580E-03  1.04497043373E-03
  1.06272654436E-03  1.08078107005E-03  1.09913902606E-03  1.11780551195E-03
  1.13678571296E-03  1.15608490150E-03  1.17570843859E-03  1.19566177532E-03
  1.21595045442E-03  1.23658011176E-03  1.25755647794E-03  1.27888537986E-03
  1.30057274235E-03  1.32262458983E-03  1.34504704793E-03  1.36784634528E-03
  1.39102881515E-03  1.41460089727E-03  1.43856913958E-03  1.46294020010E-03
  1.48772084871E-03  1.51291796909E-03  1.53853856060E-03  1.56458974024E-03
  1.59107874460E-03  1.61801293193E-03  1.64539978410E-03  1.67324690877E-03
  1.70156204141E-03  1.73035304752E-03  1.75962792479E-03  1.78939480533E-03
  1.81966195789E-03  1.85043779022E-03  1.88173085136E-03  1.91354983401E-03
  1.94590357701E-03  1.97880106770E-03  2.01225144448E-03  2.04626399935E-03
  2.08084818046E-03  2.11601359473E-03  2.15177001058E-03  2.18812736057E-03
  2.22509574419E-03  2.26268543068E-03  2.30090686186E-03  2.33977065504E-03
  2.37928760597E-03  2.41946869184E-03  2.46032507431E-03  2.50186810264E-03
  2.54410931682E-03  2.58706045081E-03  2.63073343575E-03  2.67514040331E-03
  2.72029368903E-03  2.76620583579E-03  2.81288959725E-03  2.86035794144E-03
  2.90862405430E-03  2.95770134340E-03  3.00760344163E-03  3.05834421101E-03
  3.10993774653E-03  3.16239838005E-03  3.21574068432E-03  3.26997947697E-03
  3.32512982469E-03  3.38120704737E-03  3.43822672239E-03  3.49620468890E-03
  3.55515705227E-03  3.61510018854E-03  3.67605074896E-03  3.73802566464E-03
  3.80104215122E-03  3.86511771370E-03  3.93027015125E-03  3.99651756220E-03
  4.06387834901E-03  4.13237122347E-03  4.20201521180E-03  4.27282966002E-03
  4.34483423924E-03  4.41804895121E-03  4.49249413382E-03  4.56819046676E-03
  4.64515897729E-03  4.72342104603E-03  4.80299841296E-03  4.88391318340E-03
  4.96618783422E-03  5.04984521999E-03  5.13490857943E-03  5.22140154179E-03
  5.30934813346E-03  5.39877278460E-03  5.48970033597E-03  5.58215604581E-03
  5.67616559686E-03  5.77175510348E-03  5.86895111893E-03  5.96778064273E-03
  6.06827112815E-03  6.17045048988E-03  6.27434711172E-03  6.37998985451E-03
  6.48740806414E-03  6.59663157969E-03  6.70769074173E-03  6.82061640073E-03
  6.93543992568E-03  7.05219321272E-03  7.17090869407E-03  7.29161934702E-03
  7.41435870309E-03  7.53916085733E-03  7.66606047781E-03  7.79509281524E-03
  7.92629371275E-03  8.05969961590E-03  8.19534758273E-03  8.33327529411E-03
  8.47352106418E-03  8.61612385099E-03  8.76112326735E-03  8.90855959181E-03
  9.05847377985E-03  9.21090747526E-03  9.36590302172E-03  9.52350347455E-03
  9.68375261265E-03  9.84669495071E-03  1.00123757515E-02  1.01808410386E-02
  1.03521376090E-02  1.05263130462E-02  1.07034157332E-02  1.08834948666E-02
  1.10666004693E-02  1.12527834053E-02  1.14420953933E-02  1.16345890211E-02
  1.18303177603E-02  1.20293359815E-02  1.22316989686E-02  1.24374629349E-02
  1.26466850384E-02  1.28594233977E-02  1.30757371082E-02  1.32956862584E-02
  1.35193319466E-02  1.37467362982E-02  1.39779624824E-02  1.42130747303E-02
  1.44521383523E-02  1.46952197565E-02  1.49423864671E-02  1.51937071431E-02
  1.54492515974E-02  1.57090908162E-02  1.59732969788E-02  1.62419434775E-02
  1.65151049380E-02  1.67928572402E-02  1.70752775394E-02  1.73624442874E-02
  1.76544372547E-02  1.79513375522E-02  1.82532276543E-02  1.85601914211E-02
  1.88723141225E-02  1.91896824610E-02  1.95123845968E-02  1.98405101712E-02
  2.01741503324E-02  2.05133977605E-02  2.08583466928E-02  2.12090929509E-02
  2.15657339665E-02  2.19283688089E-02  2.22970982122E-02  2.26720246037E-02
  2.30532521320E-02  2.34408866960E-02  2.38350359747E-02  2.42358094563E-02
  2.46433184695E-02  2.50576762138E-02  2.54789977912E-02  2.59074002383E-02
  2.63430025584E-02  2.67859257550E-02  2.72362928652E-02  2.76942289939E-02
  2.81598613484E-02  2.86333192742E-02  2.91147342902E-02  2.96042401261E-02
  3.01019727587E-02  3.06080704505E-02  3.11226737872E-02  3.16459257177E-02
  3.21779715929E-02  3.27189592070E-02  3.32690388376E-02  3.38283632882E-02
  3.43970879303E-02  3.49753707467E-02  3.55633723751E-02  3.61612561531E-02
  3.67691881635E-02  3.73873372801E-02  3.80158752149E-02  3.86549765660E-02
  3.93048188655E-02  3.99655826294E-02  4.06374514074E-02  4.13206118341E-02
  4.20152536806E-02  4.27215699075E-02  4.34397567183E-02  4.41700136139E-02
  4.49125434481E-02  4.56675524841E-02  4.64352504513E-02  4.72158506042E-02
  4.80095697812E-02  4.88166284650E-02  4.96372508436E-02  5.04716648730E-02
  5.13201023402E-02  5.21827989279E-02  5.30599942794E-02  5.39519320659E-02
  5.48588600534E-02  5.57810301724E-02  5.67186985870E-02  5.76721257668E-02
  5.86415765588E-02  5.96273202611E-02  6.06296306977E-02  6.16487862947E-02
  6.26850701573E-02  6.37387701490E-02  6.48101789708E-02  6.58995942432E-02
  6.70073185887E-02  6.81336597154E-02  6.92789305033E-02  7.04434490904E-02
  7.16275389617E-02  7.28315290385E-02  7.40557537703E-02  7.53005532275E-02
  7.65662731955E-02  7.78532652716E-02  7.91618869617E-02  8.04925017802E-02
  8.18454793510E-02  8.32211955099E-02  8.46200324090E-02  8.60423786233E-02
  8.74886292579E-02  8.89591860585E-02  9.04544575226E-02  9.19748590129E-02
  9.35208128730E-02  9.50927485444E-02  9.66911026860E-02  9.83163192955E-02
  9.99688498322E-02  1.01649153343E-01  1.03357696590E-01  1.05094954179E-01
  1.06861408693E-01  1.08657550825E-01  1.10483879516E-01  1.12340902090E-01
  1.14229134398E-01  1.16149100963E-01  1.18101335120E-01  1.20086379170E-01
  1.22104784525E-01  1.24157111868E-01  1.26243931302E-01  1.28365822513E-01
  1.30523374929E-01  1.32717187883E-01  1.34947870783E-01  1.37216043276E-01
  1.39522335426E-01  1.41867387884E-01  1.44251852068E-01  1.46676390345E-01
  1.49141676213E-01  1.51648394490E-01  1.54197241503E-01  1.56788925281E-01
  1.59424165752E-01  1.62103694946E-01  1.64828257192E-01  1.67598609332E-01
  1.70415520925E-01  1.73279774464E-01  1.76192165596E-01  1.79153503334E-01
  1.82164610293E-01  1.85226322911E-01  1.88339491682E-01  1.91504981397E-01
  1.94723671377E-01  1.97996455724E-01  2.01324243567E-01  2.04707959311E-01
  2.08148542900E-01  2.11646950074E-01  2.15204152635E-01  2.18821138716E-01
  2.22498913062E-01  2.26238497297E-01  2.30040930221E-01  2.33907268089E-01
  2.37838584909E-01  2.41835972738E-01  2.45900541987E-01  2.50033421730E-01
  2.54235760015E-01  2.58508724187E-01  2.62853501205E-01  2.67271297982E-01
  2.71763341711E-01  2.76330880211E-01  2.80975182272E-01  2.85697538008E-01
  2.90499259214E-01  2.95381679734E-01  3.00346155826E-01  3.05394066543E-01
  3.10526814116E-01  3.15745824340E-01  3.21052546974E-01  3.26448456142E-01
  3.31935050742E-01  3.37513854864E-01  3.43186418211E-01  3.48954316532E-01
  3.54819152058E-01  3.60782553947E-01  3.66846178738E-01  3.73011710811E-01
  3.79280862854E-01  3.85655376336E-01  3.92137021998E-01  3.98727600339E-01
  4.05428942117E-01  4.12242908858E-01  4.19171393376E-01  4.26216320294E-01
  4.33379646581E-01  4.40663362097E-01  4.48069490141E-01  4.55600088021E-01
  4.63257247617E-01  4.71043095966E-01  4.78959795855E-01  4.87009546419E-01
  4.95194583749E-01  5.03517181521E-01  5.11979651622E-01  5.20584344790E-01
  5.29333651275E-01  5.38230001495E-01  5.47275866716E-01  5.56473759737E-01
  5.65826235587E-01  5.75335892235E-01  5.85005371316E-01  5.94837358856E-01
  6.04834586027E-01  6.14999829901E-01  6.25335914222E-01  6.35845710191E-01
  6.46532137264E-01  6.57398163960E-01  6.68446808691E-01  6.79681140596E-01
  6.91104280395E-01  7.02719401255E-01  7.14529729673E-01  7.26538546373E-01
  7.38749187214E-01  7.51165044119E-01  7.63789566018E-01  7.76626259802E-01
  7.89678691303E-01  8.02950486280E-01  8.16445331429E-01  8.30166975404E-01
  8.44119229860E-01  8.58305970515E-01  8.72731138220E-01  8.87398740060E-01
  9.02312850462E-01  9.17477612331E-01  9.32897238198E-01  9.48576011392E-01
  9.64518287228E-01  9.80728494219E-01  9.97211135304E-01  1.01397078910E+00
  1.03101211118E+00  1.04833983534E+00  1.06595877496E+00  1.08387382431E+00
  1.10208995989E+00  1.12061224186E+00  1.13944581542E+00  1.15859591225E+00
  1.17806785193E+00  1.19786704346E+00  1.21799898674E+00  1.23846927411E+00
  1.25928359190E+00  1.28044772199E+00  1.30196754344E+00  1.32384903412E+00
  1.34609827236E+00  1.36872143865E+00  1.39172481734E+00  1.41511479842E+00
  1.43889787925E+00  1.46308066640E+00  1.48766987745E+00  1.51267234291E+00
  1.53809500806E+00  1.56394493492E+00  1.59022930420E+00  1.61695541727E+00
  1.64413069822E+00  1.67176269593E+00  1.69985908611E+00  1.72842767352E+00
  1.75747639404E+00  1.78701331696E+00  1.81704664716E+00  1.84758472743E+00
  1.87863604077E+00  1.91020921274E+00  1.94231301386E+00  1.97495636208E+00
  2.00814832519E+00  2.04189812340E+00  2.07621513187E+00  2.11110888332E+00
  2.14658907069E+00  2.18266554981E+00  2.21934834215E+00  2.25664763763E+00
  2.29457379738E+00  2.33313735671E+00  2.37234902795E+00  2.41221970350E+00
  2.45276045880E+00  2.49398255542E+00  2.53589744421E+00  2.57851676848E+00
  2.62185236719E+00  2.66591627829E+00  2.71072074203E+00  2.75627820440E+00
  2.80260132053E+00  2.84970295826E+00  2.89759620167E+00  2.94629435476E+00
  2.99581094509E+00  3.04615972760E+00  3.09735468838E+00  3.14941004859E+00
  3.20234026838E+00  3.25616005093E+00  3.31088434653E+00  3.36652835672E+00
  3.42310753853E+00  3.48063760877E+00  3.53913454837E+00  3.59861460686E+00
  3.65909430687E+00  3.72059044870E+00  3.78312011500E+00  3.84670067554E+00
  3.91134979198E+00  3.97708542283E+00  4.04392582841E+00  4.11188957594E+00
  4.18099554465E+00  4.25126293111E+00  4.32271125448E+00  4.39536036198E+00
  4.46923043439E+00  4.54434199163E+00  4.62071589852E+00  4.69837337053E+00
  4.77733597966E+00  4.85762566050E+00  4.93926471623E+00  5.02227582491E+00
  5.10668204571E+00  5.19250682534E+00  5.27977400457E+00  5.36850782485E+00
  5.45873293502E+00  5.55047439821E+00  5.64375769874E+00  5.73860874924E+00
  5.83505389783E+00  5.93311993545E+00  6.03283410330E+00  6.13422410040E+00
  6.23731809128E+00  6.34214471384E+00  6.44873308725E+00  6.55711282008E+00
  6.66731401851E+00  6.77936729468E+00  6.89330377524E+00  7.00915510993E+00
  7.12695348043E+00  7.24673160926E+00  7.36852276890E+00  7.49236079101E+00
  7.61828007582E+00  7.74631560175E+00  7.87650293502E+00  8.00887823962E+00
  8.14347828733E+00  8.28034046792E+00  8.41950279952E+00  8.56100393925E+00
  8.70488319389E+00  8.85118053081E+00  8.99993658911E+00  9.15119269087E+00
  9.30499085266E+00  9.46137379716E+00  9.62038496510E+00  9.78206852726E+00
  9.94646939678E+00  1.01136332416E+01  1.02836064973E+01  1.04564363796E+01
  1.06321708981E+01  1.08108588689E+01  1.09925499288E+01  1.11772945487E+01
  1.13651440477E+01  1.15561506074E+01  1.17503672865E+01  1.19478480353E+01
  1.21486477108E+01  1.23528220920E+01  1.25604278952E+01  1.27715227902E+01
  1.29861654158E+01  1.32044153962E+01  1.34263333579E+01  1.36519809462E+01
  1.38814208424E+01  1.41147167813E+01  1.43519335688E+01  1.45931371000E+01
  1.48383943775E+01  1.50877735298E+01  1.53413438305E+01  1.55991757175E+01
  1.58613408123E+01  1.61279119404E+01  1.63989631509E+01  1.66745697376E+01
  1.69548082597E+01  1.72397565629E+01  1.75294938015E+01  1.78241004598E+01
  1.81236583749E+01  1.84282507594E+01  1.87379622241E+01  1.90528788020E+01
  1.93730879719E+01  1.96986786830E+01  2.00297413791E+01  2.03663680242E+01
  2.07086521280E+01  2.10566887715E+01  2.14105746339E+01  2.17704080189E+01
  2.21362888827E+01  2.25083188612E+01  2.28866012984E+01  2.32712412752E+01
  2.36623456386E+01  2.40600230311E+01  2.44643839213E+01  2.48755406341E+01
  2.52936073826E+01  2.57187002989E+01  2.61509374672E+01  2.65904389562E+01
  2.70373268524E+01  2.74917252942E+01  2.79537605064E+01  2.84235608350E+01
  2.89012567831E+01  2.93869810472E+01  2.98808685537E+01  3.03830564969E+01
  3.08936843765E+01  3.14128940370E+01  3.19408297065E+01  3.24776380374E+01
  3.30234681464E+01  3.35784716566E+01  3.41428027391E+01  3.47166181562E+01
  3.53000773048E+01  3.58933422607E+01  3.64965778234E+01  3.71099515622E+01
  3.77336338628E+01  3.83677979741E+01  3.90126200571E+01  3.96682792330E+01
  4.03349576336E+01  4.10128404517E+01  4.17021159924E+01  4.24029757256E+01
  4.31156143390E+01  4.38402297924E+01  4.45770233725E+01  4.53261997489E+01
  4.60879670310E+01  4.68625368258E+01  4.76501242964E+01  4.84509482223E+01
  4.92652310596E+01  5.00931990033E+01  5.09350820499E+01  5.17911140611E+01
  5.26615328290E+01  5.35465801424E+01  5.44465018533E+01  5.53615479458E+01
  5.62919726053E+01  5.72380342890E+01  5.81999957979E+01  5.91781243497E+01
  6.01726916532E+01  6.11839739833E+01  6.22122522584E+01  6.32578121180E+01
  6.43209440019E+01  6.54019432316E+01  6.65011100914E+01  6.76187499127E+01
  6.87551731580E+01  6.99106955078E+01  7.10856379481E+01  7.22803268591E+01
  7.34950941067E+01  7.47302771341E+01  7.59862190554E+01  7.72632687517E+01
  7.85617809670E+01  7.98821164077E+01  8.12246418420E+01  8.25897302023E+01
  8.39777606886E+01  8.53891188738E+01  8.68241968110E+01  8.82833931421E+01
  8.97671132088E+01  9.12757691652E+01  9.28097800921E+01  9.43695721134E+01
  9.59555785147E+01  9.75682398636E+01  9.92080041320E+01  1.00875326820E+02
  1.02570671085E+02  1.04294507865E+02  1.06047316016E+02  1.07829582439E+02
  1.09641802221E+02  1.11484478767E+02  1.13358123944E+02  1.15263258221E+02
  1.17200410814E+02  1.19170119834E+02  1.21172932434E+02  1.23209404964E+02
  1.25280103125E+02  1.27385602123E+02  1.29526486832E+02  1.31703351958E+02
  1.33916802198E+02  1.36167452414E+02  1.38455927801E+02  1.40782864062E+02
  1.43148907582E+02  1.45554715611E+02  1.48000956445E+02  1.50488309610E+02
  1.53017466055E+02
  </PP_R>
  <PP_RAB>
  1.92380161509E-07  1.95613366063E-07  1.98900908922E-07  2.02243703311E-07
  2.05642677807E-07  2.09098776592E-07  2.12612959715E-07  2.16186203360E-07
  2.19819500119E-07  2.23513859263E-07  2.27270307028E-07  2.31089886895E-07
  2.34973659883E-07  2.38922704843E-07  2.42938118757E-07  2.47021017045E-07
  2.51172533869E-07  2.55393822458E-07  2.59686055416E-07  2.64050425060E-07
  2.68488143743E-07  2.73000444191E-07  2.77588579852E-07  2.82253825236E-07
  2.86997476276E-07  2.91820850682E-07  2.96725288312E-07  3.01712151542E-07
  3.06782825642E-07  3.11938719167E-07  3.17181264341E-07  3.22511917462E-07
  3.27932159300E-07  3.33443495514E-07  3.39047457065E-07  3.44745600645E-07
  3.50539509108E-07  3.56430791912E-07  3.62421085561E-07  3.68512054064E-07
  3.74705389395E-07  3.81002811967E-07  3.87406071103E-07  3.93916945528E-07
  4.00537243859E-07  4.07268805111E-07  4.14113499206E-07  4.21073227491E-07
  4.28149923269E-07  4.35345552334E-07  4.42662113519E-07  4.50101639248E-07
  4.57666196105E-07  4.65357885403E-07  4.73178843773E-07  4.81131243754E-07
  4.89217294395E-07  4.97439241876E-07  5.05799370122E-07  5.14300001445E-07
  5.22943497187E-07  5.31732258374E-07  5.40668726385E-07  5.49755383630E-07
  5.58994754239E-07  5.68389404763E-07  5.77941944888E-07  5.87655028158E-07
  5.97531352714E-07  6.07573662044E-07  6.17784745742E-07  6.28167440287E-07
  6.38724629826E-07  6.49459246981E-07  6.60374273658E-07  6.71472741880E-07
  6.82757734625E-07  6.94232386687E-07  7.05899885542E-07  7.17763472239E-07
  7.29826442292E-07  7.42092146606E-07  7.54563992399E-07  7.67245444153E-07
  7.80140024574E-07  7.93251315575E-07  8.06582959264E-07  8.20138658961E-07
  8.33922180226E-07  8.47937351904E-07  8.62188067187E-07  8.76678284699E-07
  8.91412029594E-07  9.06393394673E-07  9.21626541524E-07  9.37115701674E-07
  9.52865177766E-07  9.68879344757E-07  9.85162651130E-07  1.00171962013E-06
  1.01855485102E-06  1.03567302036E-06  1.05307888331E-06  1.07077727495E-06
  1.08877311160E-06  1.10707139223E-06  1.12567719981E-06  1.14459570274E-06
  1.16383215628E-06  1.18339190401E-06  1.20328037933E-06  1.22350310693E-06
  1.24406570437E-06  1.26497388362E-06  1.28623345264E-06  1.30785031700E-06
  1.32983048152E-06  1.35218005195E-06  1.37490523665E-06  1.39801234830E-06
  1.42150780571E-06  1.44539813554E-06  1.46968997415E-06  1.49439006942E-06
  1.51950528265E-06  1.54504259046E-06  1.57100908669E-06  1.59741198444E-06
  1.62425861802E-06  1.65155644498E-06  1.67931304825E-06  1.70753613816E-06
  1.73623355465E-06  1.76541326939E-06  1.79508338807E-06  1.82525215256E-06
  1.85592794327E-06  1.88711928146E-06  1.91883483158E-06  1.95108340372E-06
  1.98387395601E-06  2.01721559716E-06  2.05111758895E-06  2.08558934881E-06
  2.12064045245E-06  2.15628063653E-06  2.19251980131E-06  2.22936801347E-06
  2.26683550886E-06  2.30493269535E-06  2.34367015575E-06  2.38305865070E-06
  2.42310912171E-06  2.46383269418E-06  2.50524068045E-06  2.54734458302E-06
  2.59015609769E-06  2.63368711682E-06  2.67794973264E-06  2.72295624061E-06
  2.76871914281E-06  2.81525115148E-06  2.86256519245E-06  2.91067440882E-06
  2.95959216459E-06  3.00933204831E-06  3.05990787696E-06  3.11133369969E-06
  3.16362380179E-06  3.21679270862E-06  3.27085518966E-06  3.32582626263E-06
  3.38172119760E-06  3.43855552133E-06  3.49634502147E-06  3.55510575104E-06
  3.61485403285E-06  3.67560646403E-06  3.73737992063E-06  3.80019156236E-06
  3.86405883729E-06  3.92899948674E-06  3.99503155020E-06  4.06217337033E-06
  4.13044359808E-06  4.19986119783E-06  4.27044545270E-06  4.34221596988E-06
  4.41519268607E-06  4.48939587308E-06  4.56484614335E-06  4.64156445580E-06
  4.71957212155E-06  4.79889080991E-06  4.87954255435E-06  4.96154975865E-06
  5.04493520312E-06  5.12972205092E-06  5.21593385450E-06  5.30359456213E-06
  5.39272852458E-06  5.48336050185E-06  5.57551567007E-06  5.66921962849E-06
  5.76449840660E-06  5.86137847133E-06  5.95988673444E-06  6.06005055997E-06
  6.16189777183E-06  6.26545666159E-06  6.37075599627E-06  6.47782502635E-06
  6.58669349393E-06  6.69739164094E-06  6.80995021759E-06  6.92440049086E-06
  7.04077425323E-06  7.15910383151E-06  7.27942209577E-06  7.40176246853E-06
  7.52615893402E-06  7.65264604760E-06  7.78125894541E-06  7.91203335407E-06
  8.04500560064E-06  8.18021262273E-06  8.31769197869E-06  8.45748185814E-06
  8.59962109248E-06  8.74414916576E-06  8.89110622559E-06  9.04053309431E-06
  9.19247128036E-06  9.34696298977E-06  9.50405113788E-06  9.66377936131E-06
  9.82619203004E-06  9.99133425973E-06  1.01592519243E-05  1.03299916686E-05
  1.05036009215E-05  1.06801279088E-05  1.08596216670E-05  1.10421320566E-05
  1.12277097761E-05  1.14164063761E-05  1.16082742735E-05  1.18033667662E-05
  1.20017380477E-05  1.22034432225E-05  1.24085383212E-05  1.26170803158E-05
  1.28291271361E-05  1.30447376853E-05  1.32639718567E-05  1.34868905499E-05
  1.37135556884E-05  1.39440302361E-05  1.41783782151E-05  1.44166647238E-05
  1.46589559542E-05  1.49053192111E-05  1.51558229302E-05  1.54105366977E-05
  1.56695312688E-05  1.59328785883E-05  1.62006518099E-05  1.64729253167E-05
  1.67497747420E-05  1.70312769902E-05  1.73175102582E-05  1.76085540571E-05
  1.79044892342E-05  1.82053979956E-05  1.85113639292E-05  1.88224720273E-05
  1.91388087108E-05  1.94604618532E-05  1.97875208046E-05  2.01200764168E-05
  2.04582210684E-05  2.08020486908E-05  2.11516547938E-05  2.15071364925E-05
  2.18685925341E-05  2.22361233253E-05  2.26098309604E-05  2.29898192495E-05
  2.33761937473E-05  2.37690617826E-05  2.41685324879E-05  2.45747168299E-05
  2.49877276400E-05  2.54076796464E-05  2.58346895048E-05  2.62688758321E-05
  2.67103592382E-05  2.71592623603E-05  2.76157098966E-05  2.80798286409E-05
  2.85517475183E-05  2.90315976202E-05  2.95195122414E-05  3.00156269170E-05
  3.05200794597E-05  3.10330099985E-05  3.15545610174E-05  3.20848773951E-05
  3.26241064450E-05  3.31723979565E-05  3.37299042362E-05  3.42967801507E-05
  3.48731831691E-05  3.54592734071E-05  3.60552136712E-05  3.66611695043E-05
  3.72773092313E-05  3.79038040062E-05  3.85408278592E-05  3.91885577456E-05
  3.98471735944E-05  4.05168583588E-05  4.11977980666E-05  4.18901818721E-05
  4.25942021086E-05  4.33100543418E-05  4.40379374241E-05  4.47780535499E-05
  4.55306083120E-05  4.62958107579E-05  4.70738734490E-05  4.78650125188E-05
  4.86694477331E-05  4.94874025514E-05  5.03191041887E-05  5.11647836784E-05
  5.20246759370E-05  5.28990198291E-05  5.37880582334E-05  5.46920381109E-05
  5.56112105729E-05  5.65458309510E-05  5.74961588679E-05  5.84624583098E-05
  5.94449976994E-05  6.04440499705E-05  6.14598926442E-05  6.24928079055E-05
  6.35430826819E-05  6.46110087232E-05  6.56968826824E-05  6.68010061981E-05
  6.79236859784E-05  6.90652338860E-05  7.02259670249E-05  7.14062078284E-05
  7.26062841488E-05  7.38265293483E-05  7.50672823918E-05  7.63288879409E-05
  7.76116964497E-05  7.89160642620E-05  8.02423537108E-05  8.15909332182E-05
  8.29621773984E-05  8.43564671614E-05  8.57741898187E-05  8.72157391914E-05
  8.86815157191E-05  9.01719265715E-05  9.16873857610E-05  9.32283142583E-05
  9.47951401091E-05  9.63882985528E-05  9.80082321437E-05  9.96553908736E-05
  1.01330232297E-04  1.03033221660E-04  1.04764832024E-04  1.06525544403E-04
  1.08315847897E-04  1.10136239823E-04  1.11987225857E-04  1.13869320174E-04
  1.15783045589E-04  1.17728933707E-04  1.19707525063E-04  1.21719369279E-04
  1.23765025213E-04  1.25845061117E-04  1.27960054792E-04  1.30110593749E-04
  1.32297275374E-04  1.34520707093E-04  1.36781506540E-04  1.39080301730E-04
  1.41417731231E-04  1.43794444345E-04  1.46211101284E-04  1.48668373358E-04
  1.51166943159E-04  1.53707504749E-04  1.56290763857E-04  1.58917438071E-04
  1.61588257039E-04  1.64303962673E-04  1.67065309354E-04  1.69873064139E-04
  1.72728006978E-04  1.75630930931E-04  1.78582642382E-04  1.81583961271E-04
  1.84635721317E-04  1.87738770251E-04  1.90893970050E-04  1.94102197179E-04
  1.97364342834E-04  2.00681313186E-04  2.04054029638E-04  2.07483429076E-04
  2.10970464135E-04  2.14516103457E-04  2.18121331965E-04  2.21787151134E-04
  2.25514579272E-04  2.29304651798E-04  2.33158421535E-04  2.37076959000E-04
  2.41061352700E-04  2.45112709436E-04  2.49232154613E-04  2.53420832546E-04
  2.57679906785E-04  2.62010560432E-04  2.66413996475E-04  2.70891438120E-04
  2.75444129128E-04  2.80073334165E-04  2.84780339151E-04  2.89566451618E-04
  2.94433001073E-04  2.99381339366E-04  3.04412841067E-04  3.09528903847E-04
  3.14730948869E-04  3.20020421179E-04  3.25398790108E-04  3.30867549681E-04
  3.36428219036E-04  3.42082342836E-04  3.47831491709E-04  3.53677262677E-04
  3.59621279604E-04  3.65665193643E-04  3.71810683698E-04  3.78059456889E-04
  3.84413249028E-04  3.90873825096E-04  3.97442979739E-04  4.04122537767E-04
  4.10914354653E-04  4.17820317058E-04  4.24842343348E-04  4.31982384133E-04
  4.39242422801E-04  4.46624476079E-04  4.54130594582E-04  4.61762863393E-04
  4.69523402636E-04  4.77414368064E-04  4.85437951665E-04  4.93596382263E-04
  5.01891926141E-04  5.10326887670E-04  5.18903609949E-04  5.27624475456E-04
  5.36491906711E-04  5.45508366944E-04  5.54676360788E-04  5.63998434964E-04
  5.73477179000E-04  5.83115225939E-04  5.92915253079E-04  6.02879982714E-04
  6.13012182886E-04  6.23314668163E-04  6.33790300411E-04  6.44441989595E-04
  6.55272694587E-04  6.66285423985E-04  6.77483236952E-04  6.88869244064E-04
  7.00446608172E-04  7.12218545287E-04  7.24188325466E-04  7.36359273726E-04
  7.48734770963E-04  7.61318254896E-04  7.74113221017E-04  7.87123223565E-04