<PP_INFO>
Generated using Vanderbilt code, version   7  3  6                              
Author: kfg        Generation date:   22    9   15                              
Automatically converted from original format                                    
    0        The Pseudo was generated with a Non-Relativistic Calculation
  1.25000000000E+00    Local Potential cutoff radius
nl pn  l   occ               Rcut            Rcut US             E pseu
2S  2  0  2.00      0.00000000000      1.25000000000     -0.68771572100
2P  2  1  1.00      0.00000000000      1.25000000000     -0.26145237500
</PP_INFO>


<PP_HEADER>
   0                   Version Number
  B                    Element
   US                  Ultrasoft pseudopotential
    T                  Nonlinear Core Correction
SLA  PW   PSX  PSC     PBEsol  Exchange-Correlation functional
    3.00000000000      Z valence
   -5.83601108241      Total energy
    0.00000    0.00000 Suggested cutoff for wfc and rho
    1                  Max angular momentum component
  781                  Number of points in mesh
    2    4             Number of Wavefunctions, Number of Projectors
 Wavefunctions         nl  l   occ
                       2S  0  2.00
                       2P  1  1.00
</PP_HEADER>


<PP_MESH>
  <PP_R>
  0.00000000000E+00  3.06507791728E-06  6.18166854669E-06  9.35063762790E-06
  1.25728654505E-05  1.58492470984E-05  1.91806926988E-05  2.25681276746E-05
  2.60124930018E-05  2.95147454706E-05  3.30758579515E-05  3.66968196654E-05
  4.03786364581E-05  4.41223310802E-05  4.79289434710E-05  5.17995310473E-05
  5.57351689972E-05  5.97369505788E-05  6.38059874238E-05  6.79434098463E-05
  7.21503671571E-05  7.64280279823E-05  8.07775805886E-05  8.52002332130E-05
  8.96972143987E-05  9.42697733359E-05  9.89191802093E-05  1.03646726551E-04
  1.08453725598E-04  1.13341512659E-04  1.18311445485E-04  1.23364904643E-04
  1.28503293906E-04  1.33728040636E-04  1.39040596186E-04  1.44442436300E-04
  1.49935061524E-04  1.55519997622E-04  1.61198796001E-04  1.66973034141E-04
  1.72844316036E-04  1.78814272634E-04  1.84884562295E-04  1.91056871249E-04
  1.97332914067E-04  2.03714434135E-04  2.10203204136E-04  2.16801026551E-04
  2.23509734148E-04  2.30331190502E-04  2.37267290505E-04  2.44319960897E-04
  2.51491160797E-04  2.58782882252E-04  2.66197150786E-04  2.73736025968E-04
  2.81401601976E-04  2.89196008187E-04  2.97121409764E-04  3.05180008259E-04
  3.13374042222E-04  3.21705787828E-04  3.30177559502E-04  3.38791710571E-04
  3.47550633908E-04  3.56456762605E-04  3.65512570643E-04  3.74720573583E-04
  3.84083329262E-04  3.93603438507E-04  4.03283545853E-04  4.13126340281E-04
  4.23134555964E-04  4.33310973027E-04  4.43658418317E-04  4.54179766191E-04
  4.64877939314E-04  4.75755909468E-04  4.86816698383E-04  4.98063378571E-04
  5.09499074182E-04  5.21126961872E-04  5.32950271683E-04  5.44972287946E-04
  5.57196350186E-04  5.69625854054E-04  5.82264252271E-04  5.95115055584E-04
  6.08181833744E-04  6.21468216494E-04  6.34977894582E-04  6.48714620784E-04
  6.62682210944E-04  6.76884545040E-04  6.91325568254E-04  7.06009292076E-04
  7.20939795412E-04  7.36121225719E-04  7.51557800160E-04  7.67253806771E-04
  7.83213605655E-04  7.99441630192E-04  8.15942388271E-04  8.32720463542E-04
  8.49780516689E-04  8.67127286725E-04  8.84765592310E-04  9.02700333086E-04
  9.20936491041E-04  9.39479131892E-04  9.58333406491E-04  9.77504552258E-04
  9.96997894634E-04  1.01681884856E-03  1.03697291999E-03  1.05746570740E-03
  1.07830290337E-03  1.09949029614E-03  1.12103377123E-03  1.14293931308E-03
  1.16521300671E-03  1.18786103938E-03  1.21088970238E-03  1.23430539270E-03
  1.25811461484E-03  1.28232398264E-03  1.30694022107E-03  1.33197016814E-03
  1.35742077677E-03  1.38329911673E-03  1.40961237663E-03  1.43636786587E-03
  1.46357301669E-03  1.49123538627E-03  1.51936265878E-03  1.54796264751E-03
  1.57704329711E-03  1.60661268571E-03  1.63667902723E-03  1.66725067361E-03
  1.69833611719E-03  1.72994399300E-03  1.76208308121E-03  1.79476230956E-03
  1.82799075582E-03  1.86177765032E-03  1.89613237853E-03  1.93106448366E-03
  1.96658366929E-03  2.00269980208E-03  2.03942291454E-03  2.07676320775E-03
  2.11473105427E-03  2.15333700097E-03  2.19259177196E-03  2.23250627160E-03
  2.27309158750E-03  2.31435899364E-03  2.35631995343E-03  2.39898612299E-03
  2.44236935428E-03  2.48648169849E-03  2.53133540933E-03  2.57694294645E-03
  2.62331697892E-03  2.67047038869E-03  2.71841627425E-03  2.76716795419E-03
  2.81673897098E-03  2.86714309466E-03  2.91839432669E-03  2.97050690386E-03
  3.02349530222E-03  3.07737424111E-03  3.13215868724E-03  3.18786385888E-03
  3.24450523003E-03  3.30209853479E-03  3.36065977165E-03  3.42020520800E-03
  3.48075138464E-03  3.54231512032E-03  3.60491351648E-03  3.66856396197E-03
  3.73328413787E-03  3.79909202244E-03  3.86600589605E-03  3.93404434633E-03
  4.00322627329E-03  4.07357089456E-03  4.14509775079E-03  4.21782671099E-03
  4.29177797812E-03  4.36697209468E-03  4.44342994841E-03  4.52117277809E-03
  4.60022217945E-03  4.68060011117E-03  4.76232890096E-03  4.84543125179E-03
  4.92993024819E-03  5.01584936264E-03  5.10321246211E-03  5.19204381470E-03
  5.28236809635E-03  5.37421039771E-03  5.46759623114E-03  5.56255153774E-03
  5.65910269459E-03  5.75727652208E-03  5.85710029135E-03  5.95860173187E-03
  6.06180903914E-03  6.16675088250E-03  6.27345641316E-03  6.38195527222E-03
  6.49227759895E-03  6.60445403916E-03  6.71851575368E-03  6.83449442706E-03
  6.95242227634E-03  7.07233206002E-03  7.19425708714E-03  7.31823122654E-03
  7.44428891630E-03  7.57246517323E-03  7.70279560269E-03  7.83531640840E-03
  7.97006440256E-03  8.10707701603E-03  8.24639230874E-03  8.38804898030E-03
  8.53208638067E-03  8.67854452119E-03  8.82746408560E-03  8.97888644141E-03
  9.13285365137E-03  9.28940848512E-03  9.44859443113E-03  9.61045570874E-03
  9.77503728046E-03  9.94238486445E-03  1.01125449472E-02  1.02855647966E-02
  1.04614924747E-02  1.06403768515E-02  1.08222676182E-02  1.10072153012E-02
  1.11952712761E-02  1.13864877819E-02  1.15809179354E-02  1.17786157463E-02
  1.19796361319E-02  1.21840349326E-02  1.23918689270E-02  1.26031958482E-02
  1.28180743995E-02  1.30365642707E-02  1.32587261548E-02  1.34846217650E-02
  1.37143138514E-02  1.39478662190E-02  1.41853437448E-02  1.44268123963E-02
  1.46723392498E-02  1.49219925086E-02  1.51758415227E-02  1.54339568071E-02
  1.56964100623E-02  1.59632741936E-02  1.62346233317E-02  1.65105328530E-02
  1.67910794009E-02  1.70763409068E-02  1.73663966117E-02  1.76613270887E-02
  1.79612142648E-02  1.82661414438E-02  1.85761933297E-02  1.88914560500E-02
  1.92120171798E-02  1.95379657658E-02  1.98693923514E-02  2.02063890018E-02
  2.05490493292E-02  2.08974685193E-02  2.12517433574E-02  2.16119722554E-02
  2.19782552794E-02  2.23506941768E-02  2.27293924054E-02  2.31144551616E-02
  2.35059894096E-02  2.39041039116E-02  2.43089092575E-02  2.47205178957E-02
  2.51390441647E-02  2.55646043244E-02  2.59973165888E-02  2.64373011585E-02
  2.68846802542E-02  2.73395781508E-02  2.78021212118E-02  2.82724379242E-02
  2.87506589347E-02  2.92369170855E-02  2.97313474514E-02  3.02340873774E-02
  3.07452765167E-02  3.12650568696E-02  3.17935728228E-02  3.23309711898E-02
  3.28774012512E-02  3.34330147968E-02  3.39979661672E-02  3.45724122970E-02
  3.51565127582E-02  3.57504298048E-02  3.63543284174E-02  3.69683763497E-02
  3.75927441744E-02  3.82276053310E-02  3.88731361740E-02  3.95295160216E-02
  4.01969272058E-02  4.08755551229E-02  4.15655882849E-02  4.22672183722E-02
  4.29806402866E-02  4.37060522054E-02  4.44436556366E-02  4.51936554747E-02
  4.59562600579E-02  4.67316812256E-02  4.75201343777E-02  4.83218385340E-02
  4.91370163952E-02  4.99658944049E-02  5.08087028122E-02  5.16656757361E-02
  5.25370512300E-02  5.34230713484E-02  5.43239822137E-02  5.52400340846E-02
  5.61714814259E-02  5.71185829789E-02  5.80816018336E-02  5.90608055013E-02
  6.00564659893E-02  6.10688598765E-02  6.20982683898E-02  6.31449774827E-02
  6.42092779144E-02  6.52914653308E-02  6.63918403465E-02  6.75107086282E-02
  6.86483809800E-02  6.98051734291E-02  7.09814073144E-02  7.21774093749E-02
  7.33935118412E-02  7.46300525273E-02  7.58873749247E-02  7.71658282978E-02
  7.84657677806E-02  7.97875544759E-02  8.11315555550E-02  8.24981443603E-02
  8.38877005086E-02  8.53006099966E-02  8.67372653083E-02  8.81980655238E-02
  8.96834164303E-02  9.11937306349E-02  9.27294276791E-02  9.42909341551E-02
  9.58786838248E-02  9.74931177401E-02  9.91346843652E-02  1.00803839701E-01
  1.02501047413E-01  1.04226778959E-01  1.05981513719E-01  1.07765739132E-01
  1.09579950826E-01  1.11424652761E-01  1.13300357366E-01  1.15207585683E-01
  1.17146867509E-01  1.19118741546E-01  1.21123755549E-01  1.23162466481E-01
  1.25235440662E-01  1.27343253931E-01  1.29486491807E-01  1.31665749647E-01
  1.33881632814E-01  1.36134756846E-01  1.38425747624E-01  1.40755241551E-01
  1.43123885722E-01  1.45532338109E-01  1.47981267743E-01  1.50471354898E-01
  1.53003291280E-01  1.55577780221E-01  1.58195536874E-01  1.60857288411E-01
  1.63563774222E-01  1.66315746129E-01  1.69113968585E-01  1.71959218892E-01
  1.74852287415E-01  1.77793977804E-01  1.80785107214E-01  1.83826506533E-01
  1.86919020613E-01  1.90063508507E-01  1.93260843703E-01  1.96511914371E-01
  1.99817623607E-01  2.03178889684E-01  2.06596646310E-01  2.10071842882E-01
  2.13605444756E-01  2.17198433511E-01  2.20851807222E-01  2.24566580739E-01
  2.28343785966E-01  2.32184472153E-01  2.36089706180E-01  2.40060572861E-01
  2.44098175239E-01  2.48203634897E-01  2.52378092266E-01  2.56622706944E-01
  2.60938658020E-01  2.65327144395E-01  2.69789385122E-01  2.74326619741E-01
  2.78940108624E-01  2.83631133326E-01  2.88400996938E-01  2.93251024454E-01
  2.98182563135E-01  3.03196982885E-01  3.08295676629E-01  3.13480060705E-01
  3.18751575253E-01  3.24111684615E-01  3.29561877747E-01  3.35103668625E-01
  3.40738596671E-01  3.46468227180E-01  3.52294151753E-01  3.58217988738E-01
  3.64241383685E-01  3.70366009797E-01  3.76593568400E-01  3.82925789410E-01
  3.89364431818E-01  3.95911284178E-01  4.02568165101E-01  4.09336923765E-01
  4.16219440423E-01  4.23217626929E-01  4.30333427271E-01  4.37568818104E-01
  4.44925809305E-01  4.52406444532E-01  4.60012801785E-01  4.67746993992E-01
  4.75611169588E-01  4.83607513118E-01  4.91738245838E-01  5.00005626339E-01
  5.08411951168E-01  5.16959555470E-01  5.25650813634E-01  5.34488139953E-01
  5.43473989299E-01  5.52610857797E-01  5.61901283526E-01  5.71347847220E-01
  5.80953172983E-01  5.90719929025E-01  6.00650828396E-01  6.10748629743E-01
  6.21016138075E-01  6.31456205545E-01  6.42071732238E-01  6.52865666979E-01
  6.63841008154E-01  6.75000804539E-01  6.86348156149E-01  6.97886215099E-01
  7.09618186480E-01  7.21547329248E-01  7.33676957131E-01  7.46010439547E-01
  7.58551202544E-01  7.71302729746E-01  7.84268563328E-01  7.97452304993E-01
  8.10857616976E-01  8.24488223061E-01  8.38347909615E-01  8.52440526641E-01
  8.66769988844E-01  8.81340276723E-01  8.96155437675E-01  9.11219587115E-01
  9.26536909629E-01  9.42111660125E-01  9.57948165024E-01  9.74050823456E-01
  9.90424108486E-01  1.00707256835E+00  1.02400082774E+00  1.04121358904E+00
  1.05871563370E+00  1.07651182350E+00  1.09460710195E+00  1.11300649563E+00
  1.13171511559E+00  1.15073815881E+00  1.17008090957E+00  1.18974874099E+00
  1.20974711649E+00  1.23008159129E+00  1.25075781399E+00  1.27178152813E+00
  1.29315857375E+00  1.31489488906E+00  1.33699651206E+00  1.35946958225E+00
  1.38232034227E+00  1.40555513972E+00  1.42918042886E+00  1.45320277240E+00
  1.47762884339E+00  1.50246542700E+00  1.52771942244E+00  1.55339784487E+00
  1.57950782735E+00  1.60605662282E+00  1.63305160612E+00  1.66050027603E+00
  1.68841025735E+00  1.71678930304E+00  1.74564529635E+00  1.77498625302E+00
  1.80482032349E+00  1.83515579522E+00  1.86600109490E+00  1.89736479088E+00
  1.92925559550E+00  1.96168236751E+00  1.99465411457E+00  2.02817999570E+00
  2.06226932387E+00  2.09693156855E+00  2.13217635837E+00  2.16801348377E+00
  2.20445289974E+00  2.24150472857E+00  2.27917926268E+00  2.31748696745E+00
  2.35643848417E+00  2.39604463295E+00  2.43631641575E+00  2.47726501943E+00
  2.51890181888E+00  2.56123838014E+00  2.60428646363E+00  2.64805802744E+00
  2.69256523061E+00  2.73782043654E+00  2.78383621641E+00  2.83062535268E+00
  2.87820084264E+00  2.92657590199E+00  2.97576396858E+00  3.02577870607E+00
  3.07663400775E+00  3.12834400044E+00  3.18092304836E+00  3.23438575712E+00
  3.28874697783E+00  3.34402181117E+00  3.40022561163E+00  3.45737399172E+00
  3.51548282637E+00  3.57456825730E+00  3.63464669750E+00  3.69573483581E+00
  3.75784964156E+00  3.82100836925E+00  3.88522856339E+00  3.95052806333E+00
  4.01692500824E+00  4.08443784215E+00  4.15308531904E+00  4.22288650812E+00
  4.29386079903E+00  4.36602790733E+00  4.43940787990E+00  4.51402110052E+00
  4.58988829559E+00  4.66703053980E+00  4.74546926205E+00  4.82522625138E+00
  4.90632366303E+00  4.98878402457E+00  5.07263024219E+00  5.15788560705E+00
  5.24457380173E+00  5.33271890685E+00  5.42234540774E+00  5.51347820121E+00
  5.60614260251E+00  5.70036435236E+00  5.79616962407E+00  5.89358503082E+00
  5.99263763309E+00  6.09335494611E+00  6.19576494757E+00  6.29989608536E+00
  6.40577728544E+00  6.51343795996E+00  6.62290801535E+00  6.73421786065E+00
  6.84739841598E+00  6.96248112113E+00  7.07949794423E+00  7.19848139073E+00
  7.31946451234E+00  7.44248091627E+00  7.56756477452E+00  7.69475083341E+00
  7.82407442324E+00  7.95557146804E+00  8.08927849562E+00  8.22523264768E+00
  8.36347169014E+00  8.50403402362E+00  8.64695869411E+00  8.79228540384E+00
  8.94005452227E+00  9.09030709732E+00  9.24308486679E+00  9.39843026992E+00
  9.55638645923E+00  9.71699731244E+00  9.88030744471E+00  1.00463622210E+01
  1.02152077688E+01  1.03868909906E+01  1.05614595773E+01  1.07389620214E+01
  1.09194476302E+01  1.11029665398E+01  1.12895697288E+01  1.14793090327E+01
  1.16722371580E+01  1.18684076971E+01  1.20678751431E+01  1.22706949049E+01
  1.24769233226E+01  1.26866176832E+01  1.28998362366E+01  1.31166382114E+01
  1.33370838318E+01  1.35612343341E+01  1.37891519839E+01  1.40209000929E+01
  1.42565430373E+01  1.44961462748E+01  1.47397763635E+01  1.49875009800E+01
  1.52393889382E+01  1.54955102087E+01  1.57559359378E+01  1.60207384678E+01
  1.62899913566E+01  1.65637693984E+01  1.68421486444E+01  1.71252064240E+01
  1.74130213662E+01  1.77056734214E+01  1.80032438837E+01  1.83058154135E+01
  1.86134720604E+01  1.89262992866E+01  1.92443839905E+01  1.95678145310E+01
  1.98966807520E+01  2.02310740074E+01  2.05710871863E+01  2.09168147390E+01
  2.12683527032E+01  2.16257987306E+01  2.19892521140E+01  2.23588138151E+01
  2.27345864922E+01  2.31166745290E+01  2.35051840637E+01  2.39002230179E+01
  2.43019011274E+01  2.47103299718E+01  2.51256230063E+01  2.55478955928E+01
  2.59772650319E+01  2.64138505956E+01  2.68577735606E+01  2.73091572416E+01
  2.77681270258E+01  2.82348104079E+01  2.87093370251E+01  2.91918386934E+01
  2.96824494441E+01  3.01813055612E+01  3.06885456191E+01  3.12043105209E+01
  3.17287435381E+01  3.22619903498E+01  3.28041990836E+01  3.33555203565E+01
  3.39161073169E+01  3.44861156870E+01  3.50657038060E+01  3.56550326745E+01
  3.62542659986E+01  3.68635702360E+01  3.74831146417E+01  3.81130713153E+01
  3.87536152490E+01  3.94049243756E+01  4.00671796186E+01  4.07405649420E+01
  4.14252674016E+01  4.21214771969E+01  4.28293877241E+01  4.35491956296E+01
  4.42811008644E+01  4.50253067405E+01  4.57820199864E+01  4.65514508051E+01
  4.73338129324E+01  4.81293236961E+01  4.89382040765E+01  4.97606787677E+01
  5.05969762404E+01  5.14473288048E+01  5.23119726752E+01  5.31911480362E+01
  5.40850991088E+01  5.49940742185E+01  5.59183258642E+01  5.68581107884E+01
  5.78136900485E+01  5.87853290894E+01  5.97732978170E+01  6.07778706735E+01
  6.17993267133E+01  6.28379496807E+01  6.38940280890E+01  6.49678552998E+01
  6.60597296055E+01  6.71699543116E+01  6.82988378209E+01  6.94466937194E+01
  7.06138408633E+01  7.18006034678E+01  7.30073111967E+01  7.42342992543E+01
  7.54819084787E+01  7.67504854358E+01  7.80403825164E+01  7.93519580336E+01
  8.06855763222E+01
  </PP_R>
  <PP_RAB>
  3.03960655185E-06  3.09069118380E-06  3.14263436096E-06  3.19545051231E-06
  3.24915430936E-06  3.30376067016E-06  3.35928476350E-06  3.41574201309E-06
  3.47314810188E-06  3.53151897636E-06  3.59087085104E-06  3.65122021294E-06
  3.71258382615E-06  3.77497873652E-06  3.83842227637E-06  3.90293206930E-06
  3.96852603514E-06  4.03522239483E-06  4.10303967558E-06  4.17199671595E-06
  4.24211267113E-06  4.31340701822E-06  4.38589956166E-06  4.45961043873E-06
  4.53456012516E-06  4.61076944078E-06  4.68825955534E-06  4.76705199436E-06
  4.84716864515E-06  4.92863176283E-06  5.01146397659E-06  5.09568829590E-06
  5.18132811695E-06  5.26840722912E-06  5.35694982162E-06  5.44698049019E-06
  5.53852424391E-06  5.63160651221E-06  5.72625315186E-06  5.82249045420E-06
  5.92034515245E-06  6.01984442908E-06  6.12101592343E-06  6.22388773934E-06
  6.32848845297E-06  6.43484712076E-06  6.54299328746E-06  6.65295699436E-06
  6.76476878765E-06  6.87845972688E-06  6.99406139360E-06  7.11160590013E-06
  7.23112589846E-06  7.35265458937E-06  7.47622573162E-06  7.60187365131E-06
  7.72963325145E-06  7.85954002163E-06  7.99163004792E-06  8.12594002283E-06
  8.26250725555E-06  8.40136968231E-06  8.54256587689E-06  8.68613506136E-06
  8.83211711698E-06  8.98055259526E-06  9.13148272923E-06  9.28494944489E-06
  9.44099537288E-06  9.59966386029E-06  9.76099898273E-06  9.92504555653E-06
  1.00918491513E-05  1.02614561023E-05  1.04339135238E-05  1.06092693217E-05
  1.07875722071E-05  1.09688717097E-05  1.11532181916E-05  1.13406628614E-05
  1.15312577882E-05  1.17250559164E-05  1.19221110799E-05  1.21224780176E-05
  1.23262123883E-05  1.25333707861E-05  1.27440107564E-05  1.29581908116E-05
  1.31759704476E-05  1.33974101601E-05  1.36225714615E-05  1.38515168982E-05
  1.40843100676E-05  1.43210156358E-05  1.45616993561E-05  1.48064280864E-05
  1.50552698087E-05  1.53082936472E-05  1.55655698879E-05  1.58271699980E-05
  1.60931666461E-05  1.63636337217E-05  1.66386463564E-05  1.69182809442E-05
  1.72026151633E-05  1.74917279973E-05  1.77856997570E-05  1.80846121033E-05
  1.83885480692E-05  1.86975920834E-05  1.90118299934E-05  1.93313490895E-05
  1.96562381291E-05  1.99865873612E-05  2.03224885517E-05  2.06640350086E-05
  2.10113216081E-05  2.13644448209E-05  2.17235027390E-05  2.20885951032E-05
  2.24598233303E-05  2.28372905416E-05  2.32211015916E-05  2.36113630968E-05
  2.40081834659E-05  2.44116729292E-05  2.48219435697E-05  2.52391093542E-05
  2.56632861647E-05  2.60945918308E-05  2.65331461624E-05  2.69790709829E-05
  2.74324901634E-05  2.78935296564E-05  2.83623175314E-05  2.88389840104E-05
  2.93236615037E-05  2.98164846471E-05  3.03175903390E-05  3.08271177787E-05
  3.13452085050E-05  3.18720064351E-05  3.24076579054E-05  3.29523117112E-05
  3.35061191488E-05  3.40692340572E-05  3.46418128607E-05  3.52240146128E-05
  3.58160010400E-05  3.64179365865E-05  3.70299884608E-05  3.76523266811E-05
  3.82851241231E-05  3.89285565680E-05  3.95828027511E-05  4.02480444118E-05
  4.09244663436E-05  4.16122564458E-05  4.23116057758E-05  4.30227086016E-05
  4.37457624565E-05  4.44809681933E-05  4.52285300407E-05  4.59886556594E-05
  4.67615562005E-05  4.75474463633E-05  4.83465444559E-05  4.91590724551E-05
  4.99852560683E-05  5.08253247962E-05  5.16795119967E-05  5.25480549495E-05
  5.34311949222E-05  5.43291772369E-05  5.52422513392E-05  5.61706708665E-05
  5.71146937191E-05  5.80745821316E-05  5.90506027460E-05  6.00430266853E-05
  6.10521296291E-05  6.20781918904E-05  6.31214984931E-05  6.41823392513E-05
  6.52610088497E-05  6.63578069258E-05  6.74730381527E-05  6.86070123240E-05
  6.97600444400E-05  7.09324547946E-05  7.21245690650E-05  7.33367184016E-05
  7.45692395206E-05  7.58224747966E-05  7.70967723587E-05  7.83924861867E-05
  7.97099762094E-05  8.10496084046E-05  8.24117549011E-05  8.37967940817E-05
  8.52051106884E-05  8.66370959292E-05  8.80931475871E-05  8.95736701302E-05
  9.10790748243E-05  9.26097798471E-05  9.41662104042E-05  9.57487988475E-05
  9.73579847950E-05  9.89942152532E-05  1.00657944741E-04  1.02349635416E-04
  1.04069757204E-04  1.05818787927E-04  1.07597213438E-04  1.09405527756E-04
  1.11244233201E-04  1.13113840538E-04  1.15014869113E-04  1.16947847003E-04
  1.18913311158E-04  1.20911807552E-04  1.22943891337E-04  1.25010126994E-04
  1.27111088490E-04  1.29247359439E-04  1.31419533263E-04  1.33628213359E-04
  1.35874013261E-04  1.38157556819E-04  1.40479478364E-04  1.42840422890E-04
  1.45241046230E-04  1.47682015238E-04  1.50164007979E-04  1.52687713909E-04
  1.55253834075E-04  1.57863081304E-04  1.60516180404E-04  1.63213868364E-04
  1.65956894560E-04  1.68746020959E-04  1.71582022339E-04  1.74465686495E-04
  1.77397814463E-04  1.80379220743E-04  1.83410733521E-04  1.86493194905E-04
  1.89627461154E-04  1.92814402916E-04  1.96054905475E-04  1.99349868990E-04
  2.02700208751E-04  2.06106855428E-04  2.09570755336E-04  2.13092870689E-04
  2.16674179877E-04  2.20315677730E-04  2.24018375799E-04  2.27783302635E-04
  2.31611504076E-04  2.35504043535E-04  2.39462002298E-04  2.43486479823E-04
  2.47578594048E-04  2.51739481696E-04  2.55970298597E-04  2.60272220004E-04
  2.64646440924E-04  2.69094176445E-04  2.73616662080E-04  2.78215154102E-04
  2.82890929900E-04  2.87645288331E-04  2.92479550081E-04  2.97395058031E-04
  3.02393177631E-04  3.07475297281E-04  3.12642828713E-04  3.17897207385E-04
  3.23239892881E-04  3.28672369315E-04  3.34196145743E-04  3.39812756582E-04
  3.45523762038E-04  3.51330748540E-04  3.57235329174E-04  3.63239144142E-04
  3.69343861208E-04  3.75551176165E-04  3.81862813309E-04  3.88280525912E-04
  3.94806096713E-04  4.01441338413E-04  4.08188094177E-04  4.15048238147E-04
  4.22023675964E-04  4.29116345293E-04  4.36328216366E-04  4.43661292527E-04
  4.51117610789E-04  4.58699242399E-04  4.66408293414E-04  4.74246905288E-04
  4.82217255463E-04  4.90321557977E-04  4.98562064075E-04  5.06941062842E-04
  5.15460881831E-04  5.24123887712E-04  5.32932486932E-04  5.41889126381E-04
  5.50996294072E-04  5.60256519832E-04  5.69672376005E-04  5.79246478168E-04
  5.88981485855E-04  5.98880103298E-04  6.08945080176E-04  6.19179212380E-04
  6.29585342792E-04  6.40166362069E-04  6.50925209452E-04  6.61864873579E-04
  6.72988393316E-04  6.84298858600E-04  6.95799411300E-04  7.07493246089E-04
  7.19383611329E-04  7.31473809975E-04  7.43767200495E-04  7.56267197797E-04
  7.68977274183E-04  7.81900960313E-04  7.95041846181E-04  8.08403582119E-04
  8.21989879805E-04  8.35804513300E-04  8.49851320088E-04  8.64134202153E-04
  8.78657127052E-04  8.93424129026E-04  9.08439310113E-04  9.23706841295E-04
  9.39230963650E-04  9.55015989534E-04  9.71066303778E-04  9.87386364906E-04
  1.00398070637E-03  1.02085393783E-03  1.03801074638E-03  1.05545589793E-03
  1.07319423846E-03  1.09123069540E-03  1.10957027899E-03  1.12821808369E-03
  1.14717928955E-03  1.16645916370E-03  1.18606306179E-03  1.20599642947E-03
  1.22626480390E-03  1.24687381534E-03  1.26782918863E-03  1.28913674485E-03
  1.31080240290E-03  1.33283218115E-03  1.35523219914E-03  1.37800867922E-03
  1.40116794836E-03  1.42471643983E-03  1.44866069502E-03  1.47300736528E-03
  1.49776321372E-03  1.52293511713E-03  1.54853006787E-03  1.57455517580E-03
  1.60101767030E-03  1.62792490222E-03  1.65528434597E-03  1.68310360157E-03
  1.71139039678E-03  1.74015258920E-03  1.76939816854E-03  1.79913525875E-03
  1.82937212031E-03  1.86011715257E-03  1.89137889599E-03  1.92316603460E-03
  1.95548739837E-03  1.98835196565E-03  2.02176886571E-03  2.05574738123E-03
  2.09029695091E-03  2.12542717207E-03  2.16114780334E-03  2.19746876733E-03
  2.23440015345E-03  2.27195222065E-03  2.31013540029E-03  2.34896029906E-03
  2.38843770191E-03  2.42857857504E-03  2.46939406894E-03  2.51089552152E-03
  2.55309446122E-03  2.59600261024E-03  2.63963188779E-03  2.68399441339E-03
  2.72910251026E-03  2.77496870871E-03  2.82160574964E-03  2.86902658808E-03
  2.91724439681E-03  2.96627256996E-03  3.01612472679E-03  3.06681471543E-03
  3.11835661677E-03  3.17076474834E-03  3.22405366827E-03  3.27823817941E-03
  3.33333333333E-03  3.38935443462E-03  3.44631704505E-03  3.50423698792E-03
  3.56313035249E-03  3.62301349840E-03  3.68390306025E-03  3.74581595219E-03
  3.80876937265E-03  3.87278080909E-03  3.93786804289E-03  4.00404915423E-03
  4.07134252720E-03  4.13976685483E-03  4.20934114431E-03  4.28008472229E-03
  4.35201724022E-03  4.42515867980E-03  4.49952935859E-03  4.57514993557E-03
  4.65204141695E-03  4.73022516198E-03  4.80972288885E-03  4.89055668079E-03
  4.97274899214E-03  5.05632265463E-03  5.14130088370E-03  5.22770728497E-03
  5.31556586076E-03  5.40490101681E-03  5.49573756900E-03  5.58810075030E-03
  5.68201621774E-03  5.77751005956E-03  5.87460880243E-03  5.97333941885E-03
  6.07372933464E-03  6.17580643651E-03  6.27959907988E-03  6.38513609671E-03
  6.49244680352E-03  6.60156100951E-03  6.71250902490E-03  6.82532166929E-03
  6.94003028026E-03  7.05666672204E-03  7.17526339440E-03  7.29585324161E-03
  7.41846976164E-03  7.54314701542E-03  7.66991963631E-03  7.79882283975E-03
  7.92989243302E-03  8.06316482518E-03  8.19867703719E-03  8.33646671221E-03
  8.47657212603E-03  8.61903219772E-03  8.76388650044E-03  8.91117527244E-03
  9.06093942820E-03  9.21322056984E-03  9.36806099866E-03  9.52550372688E-03
  9.68559248961E-03  9.84837175697E-03  1.00138867465E-02  1.01821834356E-02
  1.03533085745E-02  1.05273096990E-02  1.07042351438E-02  1.08841340562E-02
  1.10670564091E-02  1.12530530155E-02  1.14421755424E-02  1.16344765249E-02
  1.18300093812E-02  1.20288284274E-02  1.22309888921E-02  1.24365469323E-02
  1.26455596489E-02  1.28580851023E-02  1.30741823287E-02  1.32939113564E-02
  1.35173332228E-02  1.37445099909E-02  1.39755047668E-02  1.42103817172E-02
  1.44492060873E-02  1.46920442186E-02  1.49389635678E-02  1.51900327251E-02
  1.54453214337E-02  1.57049006086E-02  1.59688423569E-02  1.62372199975E-02
  1.65101080813E-02  1.67875824124E-02  1.70697200689E-02  1.73565994239E-02
  1.76483001682E-02  1.79449033316E-02  1.82464913058E-02  1.85531478670E-02
  1.88649581998E-02  1.91820089200E-02  1.95043880994E-02  1.98321852898E-02
  2.01654915480E-02  2.05043994614E-02  2.08490031731E-02  2.11993984087E-02
  2.15556825023E-02  2.19179544242E-02  2.22863148076E-02  2.26608659773E-02
  2.30417119778E-02  2.34289586020E-02  2.38227134208E-02  2.42230858133E-02
  2.46301869964E-02  2.50441300566E-02  2.54650299805E-02  2.58930036877E-02
  2.63281700624E-02  2.67706499869E-02  2.72205663752E-02  2.76780442070E-02
  2.81432105624E-02  2.86161946573E-02  2.90971278791E-02  2.95861438235E-02
  3.00833783314E-02  3.05889695268E-02  3.11030578549E-02  3.16257861212E-02
  3.21572995315E-02  3.26977457317E-02  3.32472748494E-02  3.38060395349E-02
  3.43741950044E-02  3.49518990824E-02  3.55393122460E-02  3.61365976693E-02
  3.67439212688E-02  3.73614517493E-02  3.79893606511E-02  3.86278223974E-02
  3.92770143427E-02  3.99371168224E-02  4.06083132023E-02  4.12907899305E-02
  4.19847365879E-02  4.26903459422E-02  4.34078140004E-02  4.41373400639E-02
  4.48791267833E-02  4.56333802155E-02  4.64003098801E-02  4.71801288179E-02
  4.79730536505E-02  4.87793046398E-02  4.95991057496E-02  5.04326847077E-02
  5.12802730691E-02  5.21421062806E-02  5.30184237458E-02  5.39094688918E-02
  5.48154892370E-02  5.57367364594E-02  5.66734664670E-02  5.76259394686E-02
  5.85944200461E-02  5.95791772282E-02  6.05804845648E-02  6.15986202034E-02
  6.26338669658E-02  6.36865124274E-02  6.47568489964E-02  6.58451739955E-02
  6.69517897440E-02  6.80770036423E-02  6.92211282573E-02  7.03844814085E-02
  7.15673862571E-02  7.27701713954E-02  7.39931709381E-02  7.52367246153E-02
  7.65011778663E-02  7.77868819365E-02  7.90941939740E-02  8.04234771296E-02
  8.17751006570E-02  8.31494400160E-02  8.45468769764E-02  8.59677997240E-02
  8.74126029687E-02  8.88816880541E-02  9.03754630689E-02  9.18943429600E-02
  9.34387496484E-02  9.50091121459E-02  9.66058666743E-02  9.82294567869E-02
  9.98803334913E-02  1.01558955375E-01  1.03265788733E-01  1.05001307696E-01
  1.06765994364E-01  1.08560338939E-01  1.10384839862E-01  1.12240003951E-01
  1.14126346540E-01  1.16044391625E-01  1.17994672010E-01  1.19977729452E-01
  1.21994114812E-01  1.24044388211E-01  1.26129119182E-01  1.28248886830E-01
  1.30404279994E-01  1.32595897407E-01  1.34824347867E-01  1.37090250401E-01
  1.39394234442E-01  1.41736940000E-01  1.44119017842E-01  1.46541129671E-01
  1.49003948311E-01  1.51508157895E-01  1.54054454053E-01  1.56643544105E-01
  1.59276147260E-01  1.61952994814E-01  1.64674830352E-01  1.67442409957E-01
  1.70256502419E-01  1.73117889449E-01  1.76027365895E-01  1.78985739964E-01
  1.81993833444E-01  1.85052481937E-01  1.88162535087E-01  1.91324856818E-01
  1.94540325573E-01  1.97809834558E-01  2.01134291991E-01  2.04514621354E-01
  2.07951761650E-01  2.11446667660E-01  2.15000310216E-01  2.18613676463E-01
  2.22287770136E-01  2.26023611842E-01  2.29822239338E-01  2.33684707822E-01
  2.37612090228E-01  2.41605477520E-01  2.45665978999E-01  2.49794722606E-01
  2.53992855243E-01  2.58261543084E-01  2.62601971903E-01  2.67015347403E-01
  2.71502895550E-01  2.76065862913E-01  2.80705517014E-01  2.85423146674E-01
  2.90220062377E-01  2.95097596630E-01  3.00057104335E-01  3.05099963165E-01
  3.10227573947E-01  3.15441361050E-01  3.20742772781E-01  3.26133281789E-01
  3.31614385473E-01  3.37187606396E-01  3.42854492711E-01  3.48616618590E-01
  3.54475584661E-01  3.60433018450E-01  3.66490574840E-01  3.72649936525E-01
  3.78912814476E-01  3.85280948424E-01  3.91756107335E-01  3.98340089905E-01