<PP_INFO>
Generated using Vanderbilt code, version   7  3  6                              
Author: kfg    Generation date:   23    7 2013                              
Automatically converted from original format                                    
    1        The Pseudo was generated with a Scalar-Relativistic Calculation
  2.30000000000E+00    Local Potential cutoff radius
nl pn  l   occ               Rcut            Rcut US             E pseu
5S  5  0  2.00      0.00000000000      2.25000000000     -0.73306807900
4D  4  2  9.50      0.00000000000      1.80000000000     -1.31486105300
5P  5  1  0.00      0.00000000000      2.25000000000     -0.32842014500
</PP_INFO>


<PP_HEADER>
   0                   Version Number
  Cd                   Element
   US                  Ultrasoft pseudopotential
    T                  Nonlinear Core Correction
SLA  PW   PSX  PSC     PBEsol  Exchange-Correlation functional
   12.00000000000      Z valence
 -113.86442026800      Total energy
    0.00000    0.00000 Suggested cutoff for wfc and rho
    2                  Max angular momentum component
  889                  Number of points in mesh
    3    6             Number of Wavefunctions, Number of Projectors
 Wavefunctions         nl  l   occ
                       5S  0  2.00
                       4D  2  9.50
                       5P  1  0.00
</PP_HEADER>


<PP_MESH>
  <PP_R>
  0.00000000000E+00  1.19209398672E-09  2.41436597639E-09  3.66757992880E-09
  4.95251914345E-09  6.26998674919E-09  7.62080620615E-09  9.00582182047E-09
  1.04258992720E-08  1.18819261554E-08  1.33748125348E-08  1.49054915128E-08
  1.64749198137E-08  1.80840783811E-08  1.97339729916E-08  2.14256348830E-08
  2.31601213991E-08  2.49385166504E-08  2.67619321919E-08  2.86315077175E-08
  3.05484117729E-08  3.25138424854E-08  3.45290283134E-08  3.65952288135E-08
  3.87137354282E-08  4.08858722933E-08  4.31129970648E-08  4.53965017684E-08
  4.77378136688E-08  5.01383961621E-08  5.25997496906E-08  5.51234126803E-08
  5.77109625027E-08  6.03640164608E-08  6.30842327995E-08  6.58733117428E-08
  6.87329965556E-08  7.16650746341E-08  7.46713786226E-08  7.77537875589E-08
  8.09142280489E-08  8.41546754708E-08  8.74771552098E-08  9.08837439238E-08
  9.43765708416E-08  9.79578190939E-08  1.01629727077E-07  1.05394589854E-07
  1.09254760585E-07  1.13212652004E-07  1.17270737921E-07  1.21431554772E-07
  1.25697703204E-07  1.30071849697E-07  1.34556728235E-07  1.39155142015E-07
  1.43869965193E-07  1.48704144688E-07  1.53660702020E-07  1.58742735199E-07
  1.63953420659E-07  1.69296015250E-07  1.74773858268E-07  1.80390373541E-07
  1.86149071575E-07  1.92053551744E-07  1.98107504541E-07  2.04314713882E-07
  2.10679059475E-07  2.17204519244E-07  2.23895171814E-07  2.30755199060E-07
  2.37788888723E-07  2.45000637087E-07  2.52394951730E-07  2.59976454340E-07
  2.67749883602E-07  2.75720098162E-07  2.83892079665E-07  2.92270935864E-07
  3.00861903818E-07  3.09670353161E-07  3.18701789461E-07  3.27961857659E-07
  3.37456345600E-07  3.47191187647E-07  3.57172468394E-07  3.67406426466E-07
  3.77899458421E-07  3.88658122743E-07  3.99689143950E-07  4.10999416788E-07
  4.22596010546E-07  4.34486173473E-07  4.46677337308E-07  4.59177121924E-07
  4.71993340094E-07  4.85134002372E-07  4.98607322099E-07  5.12421720539E-07
  5.26585832141E-07  5.41108509935E-07  5.55998831067E-07  5.71266102474E-07
  5.86919866696E-07  6.02969907847E-07  6.19426257723E-07  6.36299202080E-07
  6.53599287057E-07  6.71337325770E-07  6.89524405071E-07  7.08171892477E-07
  7.27291443274E-07  7.46895007803E-07  7.66994838932E-07  7.87603499708E-07
  8.08733871215E-07  8.30399160624E-07  8.52612909445E-07  8.75389001995E-07
  8.98741674073E-07  9.22685521859E-07  9.47235511038E-07  9.72406986152E-07
  9.98215680192E-07  1.02467772443E-06  1.05180965851E-06  1.07962844077E-06
  1.10815145886E-06  1.13739654059E-06  1.16738196508E-06  1.19812647421E-06
  1.22964928430E-06  1.26197009812E-06  1.29510911724E-06  1.32908705462E-06
  1.36392514758E-06  1.39964517106E-06  1.43626945125E-06  1.47382087950E-06
  1.51232292668E-06  1.55179965783E-06  1.59227574718E-06  1.63377649362E-06
  1.67632783645E-06  1.71995637166E-06  1.76468936849E-06  1.81055478653E-06
  1.85758129315E-06  1.90579828146E-06  1.95523588863E-06  2.00592501479E-06
  2.05789734229E-06  2.11118535553E-06  2.16582236124E-06  2.22184250934E-06
  2.27928081423E-06  2.33817317674E-06  2.39855640650E-06  2.46046824500E-06
  2.52394738916E-06  2.58903351550E-06  2.65576730497E-06  2.72419046837E-06
  2.79434577240E-06  2.86627706640E-06  2.94002930978E-06  3.01564860009E-06
  3.09318220184E-06  3.17267857607E-06  3.25418741060E-06  3.33775965109E-06
  3.42344753293E-06  3.51130461382E-06  3.60138580731E-06  3.69374741706E-06
  3.78844717210E-06  3.88554426284E-06  3.98509937815E-06  4.08717474319E-06
  4.19183415841E-06  4.29914303933E-06  4.40916845751E-06  4.52197918242E-06
  4.63764572441E-06  4.75624037886E-06  4.87783727128E-06  5.00251240369E-06
  5.13034370210E-06  5.26141106524E-06  5.39579641447E-06  5.53358374502E-06
  5.67485917844E-06  5.81971101649E-06  5.96822979628E-06  6.12050834687E-06
  6.27664184733E-06  6.43672788617E-06  6.60086652238E-06  6.76916034795E-06
  6.94171455199E-06  7.11863698651E-06  7.30003823378E-06  7.48603167548E-06
  7.67673356359E-06  7.87226309297E-06  8.07274247595E-06  8.27829701868E-06
  8.48905519943E-06  8.70514874893E-06  8.92671273268E-06  9.15388563538E-06
  9.38680944750E-06  9.62562975399E-06  9.87049582532E-06  1.01215607108E-05
  1.03789813340E-05  1.06429185914E-05  1.09135374523E-05  1.11910070622E-05
  1.14755008488E-05  1.17671966298E-05  1.20662767247E-05  1.23729280683E-05
  1.26873423276E-05  1.30097160217E-05  1.33402506448E-05  1.36791527916E-05
  1.40266342872E-05  1.43829123187E-05  1.47482095716E-05  1.51227543684E-05
  1.55067808119E-05  1.59005289311E-05  1.63042448313E-05  1.67181808483E-05
  1.71425957054E-05  1.75777546758E-05  1.80239297479E-05  1.84813997958E-05
  1.89504507531E-05  1.94313757919E-05  1.99244755060E-05  2.04300580988E-05
  2.09484395759E-05  2.14799439425E-05  2.20249034063E-05  2.25836585845E-05
  2.31565587175E-05  2.37439618863E-05  2.43462352372E-05  2.49637552105E-05
  2.55969077764E-05  2.62460886758E-05  2.69117036679E-05  2.75941687838E-05
  2.82939105863E-05  2.90113664369E-05  2.97469847688E-05  3.05012253674E-05
  3.12745596577E-05  3.20674709988E-05  3.28804549860E-05  3.37140197609E-05
  3.45686863285E-05  3.54449888832E-05  3.63434751428E-05  3.72647066903E-05
  3.82092593255E-05  3.91777234244E-05  4.01707043088E-05  4.11888226239E-05
  4.22327147268E-05  4.33030330842E-05  4.44004466798E-05  4.55256414328E-05
  4.66793206266E-05  4.78622053483E-05  4.90750349392E-05  5.03185674574E-05
  5.15935801512E-05  5.29008699450E-05  5.42412539375E-05  5.56155699123E-05
  5.70246768617E-05  5.84694555233E-05  5.99508089309E-05  6.14696629785E-05
  6.30269669994E-05  6.46236943592E-05  6.62608430646E-05  6.79394363869E-05
  6.96605235013E-05  7.14251801436E-05  7.32345092814E-05  7.50896418043E-05
  7.69917372307E-05  7.89419844321E-05  8.09416023764E-05  8.29918408900E-05
  8.50939814387E-05  8.72493379287E-05  8.94592575280E-05  9.17251215084E-05
  9.40483461085E-05  9.64303834193E-05  9.88727222918E-05  1.01376889267E-04
  1.03944449531E-04  1.06577007893E-04  1.09276209787E-04  1.12043742302E-04
  1.14881335237E-04  1.17790762178E-04  1.20773841613E-04  1.23832438064E-04
  1.26968463252E-04  1.30183877296E-04  1.33480689934E-04  1.36860961782E-04
  1.40326805618E-04  1.43880387709E-04  1.47523929159E-04  1.51259707300E-04
  1.55090057115E-04  1.59017372697E-04  1.63044108746E-04  1.67172782104E-04
  1.71405973325E-04  1.75746328293E-04  1.80196559869E-04  1.84759449594E-04
  1.89437849423E-04  1.94234683507E-04  1.99152950024E-04  2.04195723050E-04
  2.09366154484E-04  2.14667476012E-04  2.20103001134E-04  2.25676127230E-04
  2.31390337684E-04  2.37249204065E-04  2.43256388354E-04  2.49415645237E-04
  2.55730824451E-04  2.62205873188E-04  2.68844838564E-04  2.75651870149E-04
  2.82631222558E-04  2.89787258115E-04  2.97124449575E-04  3.04647382921E-04
  3.12360760231E-04  3.20269402617E-04  3.28378253238E-04  3.36692380391E-04
  3.45216980674E-04  3.53957382241E-04  3.62919048127E-04  3.72107579665E-04
  3.81528719986E-04  3.91188357610E-04  4.01092530125E-04  4.11247427960E-04
  4.21659398258E-04  4.32334948839E-04  4.43280752270E-04  4.54503650034E-04
  4.66010656807E-04  4.77808964844E-04  4.89905948471E-04  5.02309168696E-04
  5.15026377936E-04  5.28065524861E-04  5.41434759361E-04  5.55142437645E-04
  5.69197127456E-04  5.83607613434E-04  5.98382902601E-04  6.13532229994E-04
  6.29065064436E-04  6.44991114454E-04  6.61320334347E-04  6.78062930410E-04
  6.95229367311E-04  7.12830374630E-04  7.30876953572E-04  7.49380383834E-04
  7.68352230663E-04  7.87804352082E-04  8.07748906298E-04  8.28198359309E-04
  8.49165492687E-04  8.70663411573E-04  8.92705552867E-04  9.15305693625E-04
  9.38477959670E-04  9.62236834422E-04  9.86597167953E-04  1.01157418626E-03
  1.03718350080E-03  1.06344111822E-03  1.09036345040E-03  1.11796732465E-03
  1.14626999431E-03  1.17528914947E-03  1.20504292803E-03  1.23554992708E-03
  1.26682921450E-03  1.29890034084E-03  1.33178335161E-03  1.36549879976E-03
  1.40006775855E-03  1.43551183469E-03  1.47185318190E-03  1.50911451468E-03
  1.54731912260E-03  1.58649088478E-03  1.62665428483E-03  1.66783442619E-03
  1.71005704780E-03  1.75334854016E-03  1.79773596187E-03  1.84324705651E-03
  1.88991027000E-03  1.93775476836E-03  1.98681045596E-03  2.03710799421E-03
  2.08867882070E-03  2.14155516887E-03  2.19577008818E-03  2.25135746470E-03
  2.30835204235E-03  2.36678944461E-03  2.42670619675E-03  2.48813974869E-03
  2.55112849841E-03  2.61571181591E-03  2.68193006788E-03  2.74982464288E-03
  2.81943797723E-03  2.89081358153E-03  2.96399606786E-03  3.03903117764E-03
  3.11596581028E-03  3.19484805241E-03  3.27572720800E-03  3.35865382917E-03
  3.44367974775E-03  3.53085810771E-03  3.62024339835E-03  3.71189148841E-03
  3.80585966090E-03  3.90220664901E-03  4.00099267274E-03  4.10227947656E-03
  4.20613036803E-03  4.31261025733E-03  4.42178569786E-03  4.53372492783E-03
  4.64849791290E-03  4.76617638991E-03  4.88683391176E-03  5.01054589331E-03
  5.13738965859E-03  5.26744448907E-03  5.40079167326E-03  5.53751455749E-03
  5.67769859801E-03  5.82143141442E-03  5.96880284439E-03  6.11990499988E-03
  6.27483232464E-03  6.43368165330E-03  6.59655227187E-03  6.76354597977E-03
  6.93476715351E-03  7.11032281191E-03  7.29032268295E-03  7.47487927243E-03
  7.66410793421E-03  7.85812694237E-03  8.05705756511E-03  8.26102414053E-03
  8.47015415440E-03  8.68457831977E-03  8.90443065874E-03  9.12984858616E-03
  9.36097299558E-03  9.59794834728E-03  9.84092275858E-03  1.00900480964E-02
  1.03454800721E-02  1.06073783391E-02  1.08759065923E-02  1.11512326706E-02
  1.14335286618E-02  1.17229710099E-02  1.20197406261E-02  1.23240230008E-02
  1.26360083205E-02  1.29558915862E-02  1.32838727353E-02  1.36201567667E-02
  1.39649538689E-02  1.43184795513E-02  1.46809547789E-02  1.50526061107E-02
  1.54336658407E-02  1.58243721437E-02  1.62249692238E-02  1.66357074673E-02
  1.70568435989E-02  1.74886408425E-02  1.79313690853E-02  1.83853050470E-02
  1.88507324522E-02  1.93279422083E-02  1.98172325869E-02  2.03189094104E-02
  2.08332862431E-02  2.13606845874E-02  2.19014340843E-02  2.24558727199E-02
  2.30243470364E-02  2.36072123487E-02  2.42048329666E-02  2.48175824226E-02
  2.54458437048E-02  2.60900094971E-02  2.67504824241E-02  2.74276753029E-02
  2.81220114010E-02  2.88339247011E-02  2.95638601722E-02  3.03122740477E-02
  3.10796341107E-02  3.18664199861E-02  3.26731234408E-02  3.35002486908E-02
  3.43483127161E-02  3.52178455844E-02  3.61093907820E-02  3.70235055538E-02
  3.79607612513E-02  3.89217436896E-02  3.99070535143E-02  4.09173065758E-02
  4.19531343154E-02  4.30151841591E-02  4.41041199226E-02  4.52206222261E-02
  4.63653889201E-02  4.75391355208E-02  4.87425956583E-02  4.99765215341E-02
  5.12416843922E-02  5.25388750006E-02  5.38689041456E-02  5.52326031386E-02
  5.66308243360E-02  5.80644416716E-02  5.95343512028E-02  6.10414716709E-02
  6.25867450754E-02  6.41711372623E-02  6.57956385283E-02  6.74612642398E-02
  6.91690554668E-02  7.09200796346E-02  7.27154311903E-02  7.45562322869E-02
  7.64436334852E-02  7.83788144723E-02  8.03629847993E-02  8.23973846373E-02
  8.44832855524E-02  8.66219913006E-02  8.88148386425E-02  9.10631981792E-02
  9.33684752085E-02  9.57321106037E-02  9.81555817138E-02  1.00640403287E-01
  1.03188128418E-01  1.05800349518E-01  1.08478699309E-01  1.11224851849E-01
  1.14040523571E-01  1.16927474362E-01  1.19887508660E-01  1.22922476583E-01
  1.26034275085E-01  1.29224849141E-01  1.32496192964E-01  1.35850351250E-01
  1.39289420457E-01  1.42815550116E-01  1.46430944172E-01  1.50137862364E-01
  1.53938621638E-01  1.57835597590E-01  1.61831225958E-01  1.65928004140E-01
  1.70128492755E-01  1.74435317246E-01  1.78851169518E-01  1.83378809622E-01
  1.88021067481E-01  1.92780844658E-01  1.97661116167E-01  2.02664932338E-01
  2.07795420718E-01  2.13055788030E-01  2.18449322175E-01  2.23979394286E-01
  2.29649460840E-01  2.35463065811E-01  2.41423842894E-01  2.47535517766E-01
  2.53801910424E-01  2.60226937568E-01  2.66814615049E-01  2.73569060378E-01
  2.80494495306E-01  2.87595248453E-01  2.94875758022E-01  3.02340574568E-01
  3.09994363845E-01  3.17841909719E-01  3.25888117164E-01  3.34138015319E-01
  3.42596760641E-01  3.51269640120E-01  3.60162074588E-01  3.69279622107E-01
  3.78627981440E-01  3.88212995616E-01  3.98040655581E-01  4.08117103943E-01
  4.18448638810E-01  4.29041717726E-01  4.39902961713E-01  4.51039159400E-01
  4.62457271273E-01  4.74164434025E-01  4.86167965013E-01  4.98475366834E-01
  5.11094332016E-01  5.24032747823E-01  5.37298701185E-01  5.50900483755E-01
  5.64846597090E-01  5.79145757965E-01  5.93806903822E-01  6.08839198352E-01
  6.24252037231E-01  6.40055053983E-01  6.56258126009E-01  6.72871380756E-01
  6.89905202049E-01  7.07370236582E-01  7.25277400568E-01  7.43637886569E-01
  7.62463170486E-01  7.81765018735E-01  8.01555495598E-01  8.21846970768E-01
  8.42652127078E-01  8.63983968427E-01  8.85855827911E-01  9.08281376154E-01
  9.31274629854E-01  9.54849960542E-01  9.79022103568E-01  1.00380616731E+00
  1.02921764261E+00  1.05527241247E+00  1.08198676197E+00  1.10937738845E+00
  1.13746141193E+00  1.16625638586E+00  1.19578030802E+00  1.22605163183E+00
  1.25708927785E+00  1.28891264563E+00  1.32154162579E+00  1.35499661251E+00
  1.38929851626E+00  1.42446877684E+00  1.46052937680E+00  1.49750285519E+00
  1.53541232165E+00  1.57428147082E+00  1.61413459719E+00  1.65499661025E+00
  1.69689305010E+00  1.73985010337E+00  1.78389461962E+00  1.82905412811E+00
  1.87535685500E+00  1.92283174101E+00  1.97150845947E+00  2.02141743493E+00
  2.07258986212E+00  2.12505772547E+00  2.17885381910E+00  2.23401176733E+00
  2.29056604566E+00  2.34855200237E+00  2.40800588056E+00  2.46896484084E+00
  2.53146698455E+00  2.59555137756E+00  2.66125807470E+00  2.72862814480E+00
  2.79770369635E+00  2.86852790380E+00  2.94114503461E+00  3.01560047683E+00
  3.09194076755E+00  3.17021362192E+00  3.25046796304E+00  3.33275395248E+00
  3.41712302166E+00  3.50362790399E+00  3.59232266784E+00  3.68326275034E+00
  3.77650499198E+00  3.87210767220E+00  3.97013054580E+00  4.07063488025E+00
  4.17368349405E+00  4.27934079593E+00  4.38767282513E+00  4.49874729271E+00
  4.61263362383E+00  4.72940300114E+00  4.84912840932E+00  4.97188468063E+00
  5.09774854175E+00  5.22679866168E+00  5.35911570095E+00  5.49478236201E+00
  5.63388344095E+00  5.77650588048E+00  5.92273882424E+00  6.07267367260E+00
  6.22640413972E+00  6.38402631215E+00  6.54563870886E+00  6.71134234288E+00
  6.88124078436E+00  7.05544022537E+00  7.23404954622E+00  7.41718038355E+00
  7.60494720010E+00  7.79746735625E+00  7.99486118335E+00  8.19725205897E+00
  8.40476648401E+00  8.61753416172E+00  8.83568807884E+00  9.05936458867E+00
  9.28870349630E+00  9.52384814601E+00  9.76494551088E+00  1.00121462846E+01
  1.02656049757E+01  1.05254800041E+01  1.07919338002E+01  1.10651329062E+01
  1.13452480805E+01  1.16324544043E+01  1.19269313907E+01  1.22288630975E+01
  1.25384382419E+01  1.28558503184E+01  1.31812977198E+01  1.35149838615E+01
  1.38571173080E+01  1.42079119040E+01  1.45675869074E+01  1.49363671269E+01
  1.53144830621E+01  1.57021710478E+01  1.60996734016E+01  1.65072385753E+01
  1.69251213106E+01  1.73535827976E+01  1.77928908389E+01  1.82433200161E+01
  1.87051518623E+01  1.91786750373E+01  1.96641855086E+01  2.01619867359E+01
  2.06723898613E+01  2.11957139034E+01  2.17322859567E+01  2.22824413961E+01
  2.28465240868E+01  2.34248865989E+01  2.40178904276E+01  2.46259062197E+01
  2.52493140048E+01  2.58885034332E+01  2.65438740190E+01  2.72158353902E+01
  2.79048075445E+01  2.86112211119E+01  2.93355176238E+01  3.00781497893E+01
  3.08395817776E+01  3.16202895084E+01  3.24207609495E+01  3.32414964216E+01
  3.40830089112E+01  3.49458243908E+01  3.58304821482E+01  3.67375351235E+01
  3.76675502541E+01  3.86211088298E+01  3.95988068558E+01  4.06012554252E+01
  4.16290811009E+01  4.26829263075E+01  4.37634497325E+01  4.48713267382E+01
  4.60072497839E+01  4.71719288584E+01  4.83660919240E+01  4.95904853715E+01
  5.08458744868E+01  5.21330439287E+01  5.34527982203E+01  5.48059622508E+01
  5.61933817918E+01  5.76159240258E+01  5.90744780878E+01  6.05699556217E+01
  6.21032913496E+01  6.36754436563E+01  6.52873951881E+01  6.69401534672E+01
  6.86347515213E+01  7.03722485294E+01  7.21537304837E+01  7.39803108684E+01
  7.58531313557E+01  7.77733625193E+01  7.97422045662E+01  8.17608880869E+01
  8.38306748242E+01  8.59528584622E+01  8.81287654348E+01  9.03597557546E+01
  9.26472238633E+01  9.49925995029E+01  9.73973486094E+01  9.98629742294E+01
  1.02391017459E+02  1.04983058408E+02  1.07640717186E+02  1.10365654916E+02
  1.13159574773E+02  1.16024223048E+02  1.18961390239E+02  1.21972912172E+02
  1.25060671146E+02  1.28226597110E+02  1.31472668871E+02  1.34800915331E+02
  1.38213416750E+02  1.41712306055E+02  1.45299770163E+02  1.48978051358E+02
  1.52749448685E+02  1.56616319390E+02  1.60581080393E+02  1.64646209798E+02
  1.68814248444E+02  1.73087801491E+02  1.77469540048E+02  1.81962202845E+02
  1.86568597942E+02  1.91291604486E+02  1.96134174510E+02  2.01099334778E+02
  2.06190188677E+02
  </PP_R>
  <PP_RAB>
  1.17725489947E-09  1.20705724914E-09  1.23761404888E-09  1.26894439769E-09
  1.30106787806E-09  1.33400456820E-09  1.36777505462E-09  1.40240044498E-09
  1.43790238127E-09  1.47430305335E-09  1.51162521284E-09  1.54989218729E-09
  1.58912789481E-09  1.62935685900E-09  1.67060422426E-09  1.71289577155E-09
  1.75625793445E-09  1.80071781573E-09  1.84630320427E-09  1.89304259241E-09
  1.94096519379E-09  1.99010096161E-09  2.04048060730E-09  2.09213561981E-09
  2.14509828517E-09  2.19940170680E-09  2.25507982609E-09  2.31216744368E-09
  2.37070024119E-09  2.43071480352E-09  2.49224864173E-09  2.55534021648E-09
  2.62002896204E-09  2.68635531099E-09  2.75436071946E-09  2.82408769304E-09
  2.89557981336E-09  2.96888176532E-09  3.04403936503E-09  3.12109958844E-09
  3.20011060069E-09  3.28112178624E-09  3.36418377971E-09  3.44934849756E-09
  3.53666917051E-09  3.62620037682E-09  3.71799807640E-09  3.81211964582E-09
  3.90862391410E-09  4.00757119957E-09  4.10902334750E-09  4.21304376878E-09
  4.31969747956E-09  4.42905114189E-09  4.54117310535E-09  4.65613344984E-09
  4.77400402930E-09  4.89485851668E-09  5.01877244998E-09  5.14582327944E-09
  5.27609041595E-09  5.40965528073E-09  5.54660135616E-09  5.68701423799E-09
  5.83098168885E-09  5.97859369308E-09  6.12994251299E-09  6.28512274651E-09
  6.44423138635E-09  6.60736788058E-09  6.77463419483E-09  6.94613487598E-09
  7.12197711754E-09  7.30227082664E-09  7.48712869272E-09  7.67666625796E-09
  7.87100198951E-09  8.07025735352E-09  8.27455689109E-09  8.48402829607E-09
  8.69880249492E-09  8.91901372850E-09  9.14479963599E-09  9.37630134095E-09
  9.61366353947E-09  9.85703459065E-09  1.01065666093E-08  1.03624155611E-08
  1.06247413600E-08  1.08937079681E-08  1.11694834982E-08  1.14522403192E-08
  1.17421551631E-08  1.20394092363E-08  1.23441883322E-08  1.26566829476E-08
  1.29770884018E-08  1.33056049588E-08  1.36424379520E-08  1.39877979130E-08
  1.43419007030E-08  1.47049676478E-08  1.50772256762E-08  1.54589074613E-08
  1.58502515669E-08  1.62515025956E-08  1.66629113425E-08  1.70847349515E-08
  1.75172370759E-08  1.79606880437E-08  1.84153650263E-08  1.88815522114E-08
  1.93595409813E-08  1.98496300946E-08  2.03521258728E-08  2.08673423922E-08
  2.13956016798E-08  2.19372339151E-08  2.24925776356E-08  2.30619799493E-08
  2.36457967513E-08  2.42443929459E-08  2.48581426754E-08  2.54874295533E-08
  2.61326469043E-08  2.67941980103E-08  2.74724963622E-08  2.81679659188E-08
  2.88810413709E-08  2.96121684141E-08  3.03618040265E-08  3.11304167548E-08
  3.19184870069E-08  3.27265073524E-08  3.35549828304E-08  3.44044312649E-08
  3.52753835890E-08  3.61683841761E-08  3.70839911807E-08  3.80227768869E-08
  3.89853280665E-08  3.99722463452E-08  4.09841485791E-08  4.20216672399E-08
  4.30854508107E-08  4.41761641909E-08  4.52944891117E-08  4.64411245626E-08
  4.76167872282E-08  4.88222119359E-08  5.00581521153E-08  5.13253802693E-08
  5.26246884568E-08  5.39568887877E-08  5.53228139304E-08  5.67233176328E-08
  5.81592752553E-08  5.96315843180E-08  6.11411650620E-08  6.26889610246E-08
  6.42759396285E-08  6.59030927870E-08  6.75714375238E-08  6.92820166088E-08
  7.10358992094E-08  7.28341815594E-08  7.46779876439E-08  7.65684699016E-08
  7.85068099456E-08  8.04942193013E-08  8.25319401645E-08  8.46212461768E-08
  8.67634432227E-08  8.89598702450E-08  9.12119000821E-08  9.35209403260E-08
  9.58884342019E-08  9.83158614706E-08  1.00804739353E-07  1.03356623479E-07
  1.05973108860E-07  1.08655830883E-07  1.11406466337E-07  1.14226734460E-07
  1.17118398010E-07  1.20083264371E-07  1.23123186682E-07  1.26240064992E-07
  1.29435847452E-07  1.32712531530E-07  1.36072165261E-07  1.39516848525E-07
  1.43048734360E-07  1.46670030312E-07  1.50382999806E-07  1.54189963571E-07
  1.58093301083E-07  1.62095452054E-07  1.66198917959E-07  1.70406263598E-07
  1.74720118699E-07  1.79143179562E-07  1.83678210744E-07  1.88328046787E-07
  1.93095593989E-07  1.97983832224E-07  2.02995816798E-07  2.08134680367E-07
  2.13403634885E-07  2.18805973623E-07  2.24345073217E-07  2.30024395784E-07
  2.35847491087E-07  2.41817998749E-07  2.47939650532E-07  2.54216272668E-07
  2.60651788250E-07  2.67250219685E-07  2.74015691206E-07  2.80952431455E-07
  2.88064776119E-07  2.95357170645E-07  3.02834173018E-07  3.10500456606E-07
  3.18360813088E-07  3.26420155442E-07  3.34683521019E-07  3.43156074691E-07
  3.51843112080E-07  3.60750062868E-07  3.69882494189E-07  3.79246114109E-07
  3.88846775196E-07  3.98690478176E-07  4.08783375683E-07  4.19131776107E-07
  4.29742147534E-07  4.40621121794E-07  4.51775498597E-07  4.63212249794E-07
  4.74938523726E-07  4.86961649696E-07  4.99289142549E-07  5.11928707369E-07
  5.24888244296E-07  5.38175853462E-07  5.51799840056E-07  5.65768719512E-07
  5.80091222836E-07  5.94776302057E-07  6.09833135829E-07  6.25271135162E-07
  6.41099949309E-07  6.57329471794E-07  6.73969846597E-07  6.91031474493E-07
  7.08525019556E-07  7.26461415821E-07  7.44851874119E-07  7.63707889085E-07
  7.83041246342E-07  8.02864029869E-07  8.23188629550E-07  8.44027748922E-07
  8.65394413111E-07  8.87301976981E-07  9.09764133469E-07  9.32794922157E-07
  9.56408738036E-07  9.80620340510E-07  1.00544486262E-06  1.03089782050E-06
  1.05699512307E-06  1.08375308200E-06  1.11118842189E-06  1.13931829072E-06
  1.16816027057E-06  1.19773238861E-06  1.22805312838E-06  1.25914144134E-06
  1.29101675868E-06  1.32369900353E-06  1.35720860334E-06  1.39156650271E-06
  1.42679417644E-06  1.46291364298E-06  1.49994747817E-06  1.53791882936E-06
  1.57685142988E-06  1.61676961388E-06  1.65769833152E-06  1.69966316457E-06
  1.74269034243E-06  1.78680675849E-06  1.83203998693E-06  1.87841830001E-06
  1.92597068567E-06  1.97472686570E-06  2.02471731431E-06  2.07597327715E-06
  2.12852679087E-06  2.18241070312E-06  2.23765869310E-06  2.29430529261E-06
  2.35238590761E-06  2.41193684038E-06  2.47299531219E-06  2.53559948658E-06
  2.59978849318E-06  2.66560245223E-06  2.73308249957E-06  2.80227081245E-06
  2.87321063581E-06  2.94594630935E-06  3.02052329523E-06  3.09698820650E-06
  3.17538883621E-06  3.25577418731E-06  3.33819450326E-06  3.42270129944E-06
  3.50934739536E-06  3.59818694763E-06  3.68927548388E-06  3.78266993740E-06
  3.87842868277E-06  3.97661157232E-06  4.07727997356E-06  4.18049680750E-06
  4.28632658803E-06  4.39483546221E-06  4.50609125163E-06  4.62016349475E-06
  4.73712349047E-06  4.85704434257E-06  4.98000100549E-06  5.10607033116E-06
  5.23533111700E-06  5.36786415521E-06  5.50375228326E-06  5.64308043564E-06
  5.78593569700E-06  5.93240735652E-06  6.08258696375E-06  6.23656838584E-06
  6.39444786618E-06  6.55632408460E-06  6.72229821900E-06  6.89247400862E-06
  7.06695781885E-06  7.24585870778E-06  7.42928849427E-06  7.61736182791E-06
  7.81019626067E-06  8.00791232032E-06  8.21063358586E-06  8.41848676467E-06
  8.63160177175E-06  8.85011181092E-06  9.07415345807E-06  9.30386674652E-06
  9.53939525455E-06  9.78088619515E-06  1.00284905080E-05  1.02823629539E-05
  1.05426622114E-05  1.08095509759E-05  1.10831960617E-05  1.13637685058E-05
  1.16514436751E-05  1.19464013760E-05  1.22488259667E-05  1.25589064723E-05
  1.28768367033E-05  1.32028153764E-05  1.35370462389E-05  1.38797381960E-05
  1.42311054413E-05  1.45913675907E-05  1.49607498199E-05  1.53394830047E-05
  1.57278038658E-05  1.61259551162E-05  1.65341856136E-05  1.69527505152E-05
  1.73819114377E-05  1.78219366207E-05  1.82731010942E-05  1.87356868507E-05
  1.92099830215E-05  1.96962860569E-05  2.01948999124E-05  2.07061362376E-05
  2.12303145721E-05  2.17677625442E-05  2.23188160766E-05  2.28838195955E-05
  2.34631262466E-05  2.40570981155E-05  2.46661064537E-05  2.52905319115E-05
  2.59307647749E-05  2.65872052105E-05  2.72602635148E-05  2.79503603712E-05
  2.86579271127E-05  2.93834059916E-05  3.01272504556E-05  3.08899254320E-05
  3.16719076173E-05  3.24736857759E-05  3.32957610452E-05  3.41386472490E-05
  3.50028712186E-05  3.58889731222E-05  3.67975068023E-05  3.77290401220E-05
  3.86841553200E-05  3.96634493743E-05  4.06675343756E-05  4.16970379098E-05
  4.27526034499E-05  4.38348907590E-05  4.49445763018E-05  4.60823536678E-05
  4.72489340049E-05  4.84450464639E-05  4.96714386539E-05  5.09288771101E-05
  5.22181477723E-05  5.35400564767E-05  5.48954294593E-05  5.62851138723E-05
  5.77099783137E-05  5.91709133702E-05  6.06688321737E-05  6.22046709722E-05
  6.37793897151E-05  6.53939726527E-05  6.70494289520E-05  6.87467933270E-05
  7.04871266857E-05  7.22715167932E-05  7.41010789513E-05  7.59769566960E-05
  7.79003225118E-05  7.98723785651E-05  8.18943574550E-05  8.39675229843E-05
  8.60931709487E-05  8.82726299476E-05  9.05072622138E-05  9.27984644651E-05
  9.51476687775E-05  9.75563434802E-05  1.00025994073E-04  1.02558164169E-04
  1.05154436456E-04  1.07816433688E-04  1.10545819701E-04  1.13344300451E-04
  1.16213625077E-04  1.19155587003E-04  1.22172025049E-04  1.25264824588E-04
  1.28435918720E-04  1.31687289482E-04  1.35020969086E-04  1.38439041192E-04
  1.41943642205E-04  1.45536962615E-04  1.49221248365E-04  1.52998802252E-04
  1.56871985371E-04  1.60843218588E-04  1.64914984052E-04  1.69089826749E-04
  1.73370356093E-04  1.77759247553E-04  1.82259244329E-04  1.86873159066E-04
  1.91603875610E-04  1.96454350814E-04  2.01427616383E-04  2.06526780768E-04
  2.11755031115E-04  2.17115635249E-04  2.22611943723E-04  2.28247391909E-04
  2.34025502144E-04  2.39949885937E-04  2.46024246219E-04  2.52252379664E-04
  2.58638179058E-04  2.65185635733E-04  2.71898842063E-04  2.78781994020E-04
  2.85839393799E-04  2.93075452504E-04  3.00494692907E-04  3.08101752274E-04
  3.15901385267E-04  3.23898466909E-04  3.32097995636E-04  3.40505096422E-04
  3.49125023977E-04  3.57963166037E-04  3.67025046728E-04  3.76316330022E-04
  3.85842823272E-04  3.95610480846E-04  4.05625407850E-04  4.15893863937E-04
  4.26422267228E-04  4.37217198317E-04  4.48285404388E-04  4.59633803429E-04
  4.71269488560E-04  4.83199732463E-04  4.95431991927E-04  5.07973912515E-04
  5.20833333333E-04  5.34018291940E-04  5.47537029363E-04  5.61397995252E-04
  5.75609853164E-04  5.90181485972E-04  6.05122001421E-04  6.20440737819E-04
  6.36147269875E-04  6.52251414683E-04  6.68763237858E-04  6.85693059827E-04
  7.03051462279E-04  7.20849294782E-04  7.39097681559E-04  7.57808028447E-04
  7.76992030021E-04  7.96661676908E-04  8.16829263276E-04  8.37507394524E-04
  8.58708995156E-04  8.80447316864E-04  9.02735946806E-04  9.25588816101E-04
  9.49020208537E-04  9.73044769496E-04  9.97677515111E-04  1.02293384165E-03
  1.04882953514E-03  1.07538078123E-03  1.10260417532E-03  1.13051673291E-03
  1.15913590026E-03  1.18847956528E-03  1.21856606871E-03  1.24941421561E-03
  1.28104328706E-03  1.31347305227E-03  1.34672378089E-03  1.38081625572E-03
  1.41577178566E-03  1.45161221904E-03  1.48835995732E-03  1.52603796903E-03
  1.56466980414E-03  1.60427960881E-03  1.64489214046E-03  1.68653278325E-03
  1.72922756393E-03  1.77300316812E-03  1.81788695701E-03  1.86390698443E-03
  1.91109201439E-03  1.95947153906E-03  2.00907579724E-03  2.05993579319E-03
  2.11208331606E-03  2.16555095977E-03  2.22037214332E-03  2.27658113173E-03
  2.33421305747E-03  2.39330394235E-03  2.45389072010E-03  2.51601125943E-03
  2.57970438771E-03  2.64500991520E-03  2.71196865999E-03  2.78062247348E-03
  2.85101426652E-03  2.92318803630E-03  2.99718889375E-03  3.07306309183E-03
  3.15085805438E-03  3.23062240578E-03  3.31240600136E-03  3.39625995851E-03