<PP_INFO>
Generated using Vanderbilt code, version   7  3  6                              
Author: kfg        Generation date:    5    4   21                              
Automatically converted from original format                                    
    1        The Pseudo was generated with a Scalar-Relativistic Calculation
  1.30000000000E+00    Local Potential cutoff radius
nl pn  l   occ               Rcut            Rcut US             E pseu
2S  2  0  2.00      0.00000000000      1.30000000000     -2.18435599400
2P  2  1  5.00      0.00000000000      1.40000000000     -0.81230966800
</PP_INFO>


<PP_HEADER>
   0                   Version Number
  F                    Element
   US                  Ultrasoft pseudopotential
    F                  Nonlinear Core Correction
SLA  PW   PSX  PSC     PBEsol  Exchange-Correlation functional
    7.00000000000      Z valence
  -48.21233319360      Total energy
    0.00000    0.00000 Suggested cutoff for wfc and rho
    2                  Max angular momentum component
  799                  Number of points in mesh
    2    6             Number of Wavefunctions, Number of Projectors
 Wavefunctions         nl  l   occ
                       2S  0  2.00
                       2P  1  5.00
</PP_HEADER>


<PP_MESH>
  <PP_R>
  0.00000000000E+00  4.70786767555E-06  9.49620977865E-06  1.43664019073E-05
  1.93198431735E-05  2.43579566051E-05  2.94821895545E-05  3.46940141148E-05
  3.99949275422E-05  4.53864526866E-05  5.08701384289E-05  5.64475601258E-05
  6.21203200627E-05  6.78900479138E-05  7.37584012102E-05  7.97270658162E-05
  8.57977564137E-05  9.19722169946E-05  9.82522213620E-05  1.04639573640E-04
  1.11136108790E-04  1.17743693142E-04  1.24464224927E-04  1.31299634824E-04
  1.38251886514E-04  1.45322977243E-04  1.52514938400E-04  1.59829836095E-04
  1.67269771758E-04  1.74836882738E-04  1.82533342919E-04  1.90361363346E-04
  1.98323192857E-04  2.06421118732E-04  2.14657467348E-04  2.23034604849E-04
  2.31554937824E-04  2.40220914001E-04  2.49035022946E-04  2.57999796782E-04
  2.67117810915E-04  2.76391684775E-04  2.85824082566E-04  2.95417714033E-04
  3.05175335241E-04  3.15099749366E-04  3.25193807499E-04  3.35460409469E-04
  3.45902504671E-04  3.56523092918E-04  3.67325225299E-04  3.78312005056E-04
  3.89486588481E-04  4.00852185814E-04  4.12412062171E-04  4.24169538482E-04
  4.36127992441E-04  4.48290859481E-04  4.60661633759E-04  4.73243869158E-04
  4.86041180311E-04  4.99057243638E-04  5.12295798403E-04  5.25760647785E-04
  5.39455659976E-04  5.53384769287E-04  5.67551977282E-04  5.81961353926E-04
  5.96617038754E-04  6.11523242060E-04  6.26684246109E-04  6.42104406362E-04
  6.57788152735E-04  6.73739990863E-04  6.89964503402E-04  7.06466351340E-04
  7.23250275337E-04  7.40321097092E-04  7.57683720720E-04  7.75343134168E-04
  7.93304410642E-04  8.11572710071E-04  8.30153280584E-04  8.49051460018E-04
  8.68272677454E-04  8.87822454778E-04  9.07706408261E-04  9.27930250178E-04
  9.48499790449E-04  9.69420938303E-04  9.90699703981E-04  1.01234220046E-03
  1.03435464522E-03  1.05674336199E-03  1.07951478264E-03  1.10267544894E-03
  1.12623201450E-03  1.15019124668E-03  1.17456002850E-03  1.19934536063E-03
  1.22455436342E-03  1.25019427893E-03  1.27627247302E-03  1.30279643744E-03
  1.32977379201E-03  1.35721228681E-03  1.38511980438E-03  1.41350436202E-03
  1.44237411406E-03  1.47173735422E-03  1.50160251799E-03  1.53197818505E-03
  1.56287308175E-03  1.59429608360E-03  1.62625621780E-03  1.65876266589E-03
  1.69182476635E-03  1.72545201727E-03  1.75965407912E-03  1.79444077748E-03
  1.82982210590E-03  1.86580822875E-03  1.90240948415E-03  1.93963638693E-03
  1.97749963166E-03  2.01601009571E-03  2.05517884240E-03  2.09501712415E-03
  2.13553638573E-03  2.17674826754E-03  2.21866460895E-03  2.26129745171E-03
  2.30465904343E-03  2.34876184104E-03  2.39361851442E-03  2.43924195003E-03
  2.48564525461E-03  2.53284175891E-03  2.58084502159E-03  2.62966883304E-03
  2.67932721942E-03  2.72983444660E-03  2.78120502435E-03  2.83345371043E-03
  2.88659551488E-03  2.94064570431E-03  2.99561980629E-03  3.05153361383E-03
  3.10840318987E-03  3.16624487195E-03  3.22507527686E-03  3.28491130543E-03
  3.34577014741E-03  3.40766928635E-03  3.47062650469E-03  3.53465988881E-03
  3.59978783426E-03  3.66602905105E-03  3.73340256900E-03  3.80192774320E-03
  3.87162425962E-03  3.94251214073E-03  4.01461175122E-03  4.08794380394E-03
  4.16252936575E-03  4.23838986366E-03  4.31554709090E-03  4.39402321325E-03
  4.47384077540E-03  4.55502270738E-03  4.63759233119E-03  4.72157336748E-03
  4.80698994238E-03  4.89386659442E-03  4.98222828158E-03  5.07210038846E-03
  5.16350873359E-03  5.25647957680E-03  5.35103962683E-03  5.44721604894E-03
  5.54503647276E-03  5.64452900021E-03  5.74572221356E-03  5.84864518367E-03
  5.95332747832E-03  6.05979917069E-03  6.16809084805E-03  6.27823362050E-03
  6.39025912993E-03  6.50419955910E-03  6.62008764089E-03  6.73795666770E-03
  6.85784050103E-03  6.97977358117E-03  7.10379093715E-03  7.22992819675E-03
  7.35822159676E-03  7.48870799340E-03  7.62142487288E-03  7.75641036220E-03
  7.89370324006E-03  8.03334294807E-03  8.17536960200E-03  8.31982400336E-03
  8.46674765112E-03  8.61618275358E-03  8.76817224057E-03  8.92275977572E-03
  9.07998976903E-03  9.23990738965E-03  9.40255857881E-03  9.56799006306E-03
  9.73624936764E-03  9.90738483022E-03  1.00814456147E-02  1.02584817253E-02
  1.04385440212E-02  1.06216842308E-02  1.08079549666E-02  1.09974097407E-02
  1.11901029798E-02  1.13860900408E-02  1.15854272272E-02  1.17881718045E-02
  1.19943820175E-02  1.22041171062E-02  1.24174373236E-02  1.26344039524E-02
  1.28550793228E-02  1.30795268308E-02  1.33078109557E-02  1.35399972791E-02
  1.37761525037E-02  1.40163444722E-02  1.42606421872E-02  1.45091158308E-02
  1.47618367844E-02  1.50188776501E-02  1.52803122707E-02  1.55462157512E-02
  1.58166644806E-02  1.60917361537E-02  1.63715097930E-02  1.66560657723E-02
  1.69454858390E-02  1.72398531377E-02  1.75392522346E-02  1.78437691412E-02
  1.81534913393E-02  1.84685078062E-02  1.87889090399E-02  1.91147870856E-02
  1.94462355616E-02  1.97833496868E-02  2.01262263075E-02  2.04749639254E-02
  2.08296627263E-02  2.11904246081E-02  2.15573532108E-02  2.19305539459E-02
  2.23101340267E-02  2.26962024992E-02  2.30888702735E-02  2.34882501553E-02
  2.38944568789E-02  2.43076071395E-02  2.47278196272E-02  2.51552150609E-02
  2.55899162231E-02  2.60320479950E-02  2.64817373924E-02  2.69391136026E-02
  2.74043080207E-02  2.78774542882E-02  2.83586883307E-02  2.88481483976E-02
  2.93459751013E-02  2.98523114577E-02  3.03673029275E-02  3.08910974577E-02
  3.14238455243E-02  3.19657001757E-02  3.25168170761E-02  3.30773545508E-02
  3.36474736313E-02  3.42273381019E-02  3.48171145462E-02  3.54169723959E-02
  3.60270839782E-02  3.66476245666E-02  3.72787724303E-02  3.79207088860E-02
  3.85736183494E-02  3.92376883889E-02  3.99131097789E-02  4.06000765550E-02
  4.12987860693E-02  4.20094390477E-02  4.27322396470E-02  4.34673955137E-02
  4.42151178440E-02  4.49756214440E-02  4.57491247917E-02  4.65358500996E-02
  4.73360233787E-02  4.81498745032E-02  4.89776372769E-02  4.98195494999E-02
  5.06758530375E-02  5.15467938889E-02  5.24326222587E-02  5.33335926282E-02
  5.42499638288E-02  5.51819991162E-02  5.61299662460E-02  5.70941375509E-02
  5.80747900186E-02  5.90722053717E-02  6.00866701483E-02  6.11184757843E-02
  6.21679186978E-02  6.32353003732E-02  6.43209274487E-02  6.54251118040E-02
  6.65481706498E-02  6.76904266192E-02  6.88522078602E-02  7.00338481302E-02
  7.12356868915E-02  7.24580694090E-02  7.37013468498E-02  7.49658763833E-02
  7.62520212843E-02  7.75601510375E-02  7.88906414432E-02  8.02438747255E-02
  8.16202396421E-02  8.30201315962E-02  8.44439527495E-02  8.58921121383E-02
  8.73650257908E-02  8.88631168465E-02  9.03868156781E-02  9.19365600147E-02
  9.35127950680E-02  9.51159736596E-02  9.67465563518E-02  9.84050115795E-02
  1.00091815785E-01  1.01807453554E-01  1.03552417756E-01  1.05327209686E-01
  1.07132339207E-01  1.08968324898E-01  1.10835694203E-01  1.12734983579E-01
  1.14666738656E-01  1.16631514391E-01  1.18629875225E-01  1.20662395248E-01
  1.22729658364E-01  1.24832258458E-01  1.26970799567E-01  1.29145896051E-01
  1.31358172774E-01  1.33608265280E-01  1.35896819977E-01  1.38224494323E-01
  1.40591957013E-01  1.42999888174E-01  1.45448979557E-01  1.47939934740E-01
  1.50473469325E-01  1.53050311148E-01  1.55671200485E-01  1.58336890268E-01
  1.61048146298E-01  1.63805747466E-01  1.66610485977E-01  1.69463167578E-01
  1.72364611791E-01  1.75315652143E-01  1.78317136411E-01  1.81369926864E-01
  1.84474900509E-01  1.87632949345E-01  1.90844980618E-01  1.94111917084E-01
  1.97434697269E-01  2.00814275744E-01  2.04251623396E-01  2.07747727710E-01
  2.11303593047E-01  2.14920240940E-01  2.18598710381E-01  2.22340058123E-01
  2.26145358983E-01  2.30015706151E-01  2.33952211503E-01  2.37956005919E-01
  2.42028239613E-01  2.46170082459E-01  2.50382724328E-01  2.54667375431E-01
  2.59025266664E-01  2.63457649966E-01  2.67965798675E-01  2.72551007894E-01
  2.77214594866E-01  2.81957899349E-01  2.86782284001E-01  2.91689134777E-01
  2.96679861318E-01  3.01755897365E-01  3.06918701163E-01  3.12169755887E-01
  3.17510570064E-01  3.22942678004E-01  3.28467640249E-01  3.34087044013E-01
  3.39802503642E-01  3.45615661076E-01  3.51528186324E-01  3.57541777940E-01
  3.63658163511E-01  3.69879100158E-01  3.76206375034E-01  3.82641805844E-01
  3.89187241363E-01  3.95844561967E-01  4.02615680175E-01  4.09502541200E-01
  4.16507123502E-01  4.23631439363E-01  4.30877535460E-01  4.38247493458E-01
  4.45743430603E-01  4.53367500331E-01  4.61121892891E-01  4.69008835969E-01
  4.77030595333E-01  4.85189475477E-01  4.93487820291E-01  5.01928013729E-01
  5.10512480493E-01  5.19243686737E-01  5.28124140766E-01  5.37156393763E-01
  5.46343040519E-01  5.55686720181E-01  5.65190117006E-01  5.74855961137E-01
  5.84687029383E-01  5.94686146021E-01  6.04856183603E-01  6.15200063784E-01
  6.25720758160E-01  6.36421289124E-01  6.47304730732E-01  6.58374209584E-01
  6.69632905728E-01  6.81084053571E-01  6.92730942804E-01  7.04576919354E-01
  7.16625386341E-01  7.28879805056E-01  7.41343695957E-01  7.54020639678E-01
  7.66914278059E-01  7.80028315194E-01  7.93366518492E-01  8.06932719760E-01
  8.20730816306E-01  8.34764772055E-01  8.49038618692E-01  8.63556456817E-01
  8.78322457123E-01  8.93340861596E-01  9.08615984734E-01  9.24152214784E-01
  9.39954015004E-01  9.56025924946E-01  9.72372561757E-01  9.88998621512E-01
  1.00590888055E+00  1.02310819688E+00  1.04060151150E+00  1.05839384993E+00
  1.07649032356E+00  1.09489613114E+00  1.11361656032E+00  1.13265698911E+00
  1.15202288745E+00  1.17171981880E+00  1.19175344170E+00  1.21212951143E+00
  1.23285388163E+00  1.25393250602E+00  1.27537144007E+00  1.29717684278E+00
  1.31935497842E+00  1.34191221833E+00  1.36485504278E+00  1.38819004280E+00
  1.41192392207E+00  1.43606349888E+00  1.46061570808E+00  1.48558760302E+00
  1.51098635765E+00  1.53681926855E+00  1.56309375701E+00  1.58981737118E+00
  1.61699778823E+00  1.64464281659E+00  1.67276039812E+00  1.70135861047E+00
  1.73044566934E+00  1.76002993089E+00  1.79011989411E+00  1.82072420325E+00
  1.85185165034E+00  1.88351117770E+00  1.91571188050E+00  1.94846300937E+00
  1.98177397308E+00  2.01565434123E+00  2.05011384699E+00  2.08516238990E+00
  2.12081003875E+00  2.15706703439E+00  2.19394379278E+00  2.23145090789E+00
  2.26959915479E+00  2.30839949272E+00  2.34786306828E+00  2.38800121859E+00
  2.42882547457E+00  2.47034756422E+00  2.51257941605E+00  2.55553316244E+00
  2.59922114318E+00  2.64365590899E+00  2.68885022510E+00  2.73481707497E+00
  2.78156966398E+00  2.82912142326E+00  2.87748601350E+00  2.92667732891E+00
  2.97670950120E+00  3.02759690366E+00  3.07935415524E+00  3.13199612480E+00
  3.18553793537E+00  3.23999496846E+00  3.29538286853E+00  3.35171754745E+00
  3.40901518909E+00  3.46729225395E+00  3.52656548390E+00  3.58685190699E+00
  3.64816884235E+00  3.71053390514E+00  3.77396501165E+00  3.83848038439E+00
  3.90409855740E+00  3.97083838149E+00  4.03871902974E+00  4.10776000293E+00
  4.17798113520E+00  4.24940259972E+00  4.32204491451E+00  4.39592894829E+00
  4.47107592651E+00  4.54750743744E+00  4.62524543839E+00  4.70431226197E+00
  4.78473062256E+00  4.86652362278E+00  4.94971476020E+00  5.03432793400E+00
  5.12038745192E+00  5.20791803720E+00  5.29694483567E+00  5.38749342302E+00
  5.47958981209E+00  5.57326046041E+00  5.66853227773E+00  5.76543263380E+00
  5.86398936623E+00  5.96423078845E+00  6.06618569789E+00  6.16988338421E+00
  6.27535363776E+00  6.38262675809E+00  6.49173356271E+00  6.60270539588E+00
  6.71557413766E+00  6.83037221307E+00  6.94713260136E+00  7.06588884553E+00
  7.18667506197E+00  7.30952595020E+00  7.43447680291E+00  7.56156351607E+00
  7.69082259922E+00  7.82229118601E+00  7.95600704480E+00  8.09200858959E+00
  8.23033489098E+00  8.37102568744E+00  8.51412139672E+00  8.65966312744E+00
  8.80769269093E+00  8.95825261321E+00  9.11138614724E+00  9.26713728532E+00
  9.42555077174E+00  9.58667211563E+00  9.75054760402E+00  9.91722431518E+00
  1.00867501321E+01  1.02591737563E+01  1.04345447217E+01  1.06129134090E+01
  1.07943310600E+01  1.09788497926E+01  1.11665226155E+01  1.13574034433E+01
  1.15515471125E+01  1.17490093968E+01  1.19498470232E+01  1.21541176886E+01
  1.23618800759E+01  1.25731938712E+01  1.27881197810E+01  1.30067195492E+01
  1.32290559754E+01  1.34551929326E+01  1.36851953854E+01  1.39191294091E+01
  1.41570622085E+01  1.43990621370E+01  1.46451987166E+01  1.48955426575E+01
  1.51501658787E+01  1.54091415285E+01  1.56725440055E+01  1.59404489804E+01
  1.62129334168E+01  1.64900755945E+01  1.67719551309E+01  1.70586530045E+01
  1.73502515782E+01  1.76468346226E+01  1.79484873402E+01  1.82552963900E+01
  1.85673499123E+01  1.88847375540E+01  1.92075504946E+01  1.95358814719E+01
  1.98698248089E+01  2.02094764413E+01  2.05549339443E+01  2.09062965612E+01
  2.12636652317E+01  2.16271426208E+01  2.19968331487E+01  2.23728430202E+01
  2.27552802556E+01  2.31442547219E+01  2.35398781638E+01  2.39422642363E+01
  2.43515285371E+01  2.47677886400E+01  2.51911641284E+01  2.56217766299E+01
  2.60597498512E+01  2.65052096134E+01  2.69582838886E+01  2.74191028362E+01
  2.78877988406E+01  2.83645065490E+01  2.88493629104E+01  2.93425072147E+01
  2.98440811326E+01  3.03542287566E+01  3.08730966423E+01  3.14008338504E+01
  3.19375919895E+01  3.24835252599E+01  3.30387904976E+01  3.36035472197E+01
  3.41779576697E+01  3.47621868647E+01  3.53564026424E+01  3.59607757096E+01
  3.65754796909E+01  3.72006911788E+01  3.78365897846E+01  3.84833581896E+01
  3.91411821978E+01  3.98102507894E+01  4.04907561748E+01  4.11828938500E+01
  4.18868626528E+01  4.26028648199E+01  4.33311060447E+01  4.40717955369E+01
  4.48251460823E+01  4.55913741038E+01  4.63706997241E+01  4.71633468282E+01
  4.79695431282E+01  4.87895202289E+01  4.96235136938E+01  5.04717631130E+01
  5.13345121722E+01  5.22120087225E+01  5.31045048517E+01  5.40122569567E+01
  5.49355258170E+01  5.58745766699E+01  5.68296792866E+01  5.78011080496E+01
  5.87891420316E+01  5.97940650756E+01  6.08161658765E+01  6.18557380642E+01
  6.29130802875E+01  6.39884963006E+01  6.50822950495E+01  6.61947907615E+01
  6.73263030351E+01  6.84771569318E+01  6.96476830698E+01  7.08382177185E+01
  7.20491028955E+01  7.32806864646E+01  7.45333222361E+01  7.58073700679E+01
  7.71031959693E+01  7.84211722060E+01  7.97616774070E+01  8.11250966737E+01
  8.25118216899E+01  8.39222508350E+01  8.53567892978E+01  8.68158491936E+01
  8.82998496821E+01  8.98092170878E+01  9.13443850228E+01  9.29057945112E+01
  9.44938941157E+01  9.61091400665E+01  9.77519963926E+01  9.94229350547E+01
  1.01122436081E+02  1.02850987706E+02  1.04609086509E+02  1.06397237557E+02
  1.08215954551E+02  1.10065759974E+02  1.11947185240E+02  1.13860770844E+02
  1.15807066524E+02  1.17786631412E+02  1.19800034199E+02  1.21847853297E+02
  1.23930677005E+02  1.26049103677E+02  1.28203741896E+02  1.30395210649E+02
  1.32624139501E+02  1.34891168782E+02  1.37196949764E+02  1.39542144854E+02
  1.41927427782E+02  1.44353483792E+02  1.46821009843E+02  1.49330714809E+02
  1.51883319679E+02  1.54479557766E+02  1.57120174920E+02  1.59805929739E+02
  1.62537593789E+02  1.65315951823E+02  1.68141802010E+02  1.71015956162E+02
  1.73939239968E+02  1.76912493231E+02  1.79936570109E+02  1.83012339361E+02
  1.86140684596E+02  1.89322504527E+02  1.92558713228E+02  1.95850240401E+02
  1.99198031638E+02  2.02603048693E+02  2.06066269763E+02
  </PP_R>
  <PP_RAB>
  4.66808319523E-06  4.74787756261E-06  4.82903590334E-06  4.91158153264E-06
  4.99553816427E-06  5.08092991735E-06  5.16778132327E-06  5.25611733277E-06
  5.34596332306E-06  5.43734510517E-06  5.53028893131E-06  5.62482150245E-06
  5.72096997595E-06  5.81876197343E-06  5.91822558862E-06  6.01938939550E-06
  6.12228245648E-06  6.22693433073E-06  6.33337508272E-06  6.44163529082E-06
  6.55174605608E-06  6.66373901120E-06  6.77764632959E-06  6.89350073462E-06
  7.01133550902E-06  7.13118450443E-06  7.25308215115E-06  7.37706346803E-06
  7.50316407248E-06  7.63142019079E-06  7.76186866843E-06  7.89454698075E-06
  8.02949324365E-06  8.16674622458E-06  8.30634535367E-06  8.44833073504E-06
  8.59274315835E-06  8.73962411050E-06  8.88901578753E-06  9.04096110678E-06
  9.19550371922E-06  9.35268802193E-06  9.51255917092E-06  9.67516309409E-06
  9.84054650440E-06  1.00087569133E-05  1.01798426444E-05  1.03538528472E-05
  1.05308375117E-05  1.07108474820E-05  1.08939344715E-05  1.10801510775E-05
  1.12695507966E-05  1.14621880395E-05  1.16581181473E-05  1.18573974068E-05
  1.20600830671E-05  1.22662333559E-05  1.24759074962E-05  1.26891657233E-05
  1.29060693022E-05  1.31266805450E-05  1.33510628292E-05  1.35792806153E-05
  1.38113994660E-05  1.40474860645E-05  1.42876082339E-05  1.45318349567E-05
  1.47802363944E-05  1.50328839081E-05  1.52898500784E-05  1.55512087268E-05
  1.58170349365E-05  1.60874050743E-05  1.63623968122E-05  1.66420891501E-05
  1.69265624382E-05  1.72158984002E-05  1.75101801566E-05  1.78094922489E-05
  1.81139206637E-05  1.84235528575E-05  1.87384777814E-05  1.90587859074E-05
  1.93845692538E-05  1.97159214118E-05  2.00529375725E-05  2.03957145542E-05
  2.07443508300E-05  2.10989465563E-05  2.14596036017E-05  2.18264255760E-05
  2.21995178599E-05  2.25789876358E-05  2.29649439179E-05  2.33574975840E-05
  2.37567614071E-05  2.41628500881E-05  2.45758802884E-05  2.49959706635E-05
  2.54232418972E-05  2.58578167365E-05  2.62998200261E-05  2.67493787450E-05
  2.72066220429E-05  2.76716812768E-05  2.81446900492E-05  2.86257842465E-05
  2.91151020776E-05  2.96127841142E-05  3.01189733307E-05  3.06338151453E-05
  3.11574574622E-05  3.16900507138E-05  3.22317479037E-05  3.27827046510E-05
  3.33430792350E-05  3.39130326405E-05  3.44927286040E-05  3.50823336610E-05
  3.56820171935E-05  3.62919514792E-05  3.69123117402E-05  3.75432761940E-05
  3.81850261047E-05  3.88377458344E-05  3.95016228969E-05  4.01768480114E-05
  4.08636151568E-05  4.15621216280E-05  4.22725680926E-05  4.29951586480E-05
  4.37301008804E-05  4.44776059247E-05  4.52378885244E-05  4.60111670941E-05
  4.67976637818E-05  4.75976045327E-05  4.84112191543E-05  4.92387413824E-05
  5.00804089481E-05  5.09364636461E-05  5.18071514046E-05  5.26927223551E-05
  5.35934309050E-05  5.45095358106E-05  5.54413002511E-05  5.63889919042E-05
  5.73528830236E-05  5.83332505164E-05  5.93303760233E-05  6.03445459992E-05
  6.13760517954E-05  6.24251897435E-05  6.34922612408E-05  6.45775728360E-05
  6.56814363183E-05  6.68041688063E-05  6.79460928392E-05  6.91075364698E-05
  7.02888333583E-05  7.14903228686E-05  7.27123501651E-05  7.39552663129E-05
  7.52194283775E-05  7.65051995284E-05  7.78129491426E-05  7.91430529114E-05
  8.04958929478E-05  8.18718578966E-05  8.32713430458E-05  8.46947504406E-05
  8.61424889982E-05  8.76149746260E-05  8.91126303406E-05  9.06358863895E-05
  9.21851803747E-05  9.37609573783E-05  9.53636700906E-05  9.69937789400E-05
  9.86517522251E-05  1.00338066250E-04  1.02053205459E-04  1.03797662580E-04
  1.05571938760E-04  1.07376543715E-04  1.09211995874E-04  1.11078822526E-04
  1.12977559974E-04  1.14908753688E-04  1.16872958465E-04  1.18870738580E-04
  1.20902667958E-04  1.22969330334E-04  1.25071319418E-04  1.27209239072E-04
  1.29383703479E-04  1.31595337321E-04  1.33844775956E-04  1.36132665605E-04
  1.38459663535E-04  1.40826438247E-04  1.43233669670E-04  1.45682049354E-04
  1.48172280672E-04  1.50705079019E-04  1.53281172018E-04  1.55901299733E-04
  1.58566214874E-04  1.61276683020E-04  1.64033482836E-04  1.66837406298E-04
  1.69689258918E-04  1.72589859979E-04  1.75540042766E-04  1.78540654811E-04
  1.81592558131E-04  1.84696629480E-04  1.87853760595E-04  1.91064858462E-04
  1.94330845564E-04  1.97652660158E-04  2.01031256537E-04  2.04467605306E-04
  2.07962693661E-04  2.11517525673E-04  2.15133122578E-04  2.18810523066E-04
  2.22550783582E-04  2.26354978633E-04  2.30224201089E-04  2.34159562502E-04
  2.38162193427E-04  2.42233243741E-04  2.46373882979E-04  2.50585300666E-04
  2.54868706660E-04  2.59225331502E-04  2.63656426766E-04  2.68163265419E-04
  2.72747142189E-04  2.77409373935E-04  2.82151300026E-04  2.86974282726E-04
  2.91879707584E-04  2.96868983834E-04  3.01943544798E-04  3.07104848300E-04
  3.12354377082E-04  3.17693639232E-04  3.23124168618E-04  3.28647525324E-04
  3.34265296104E-04  3.39979094836E-04  3.45790562983E-04  3.51701370067E-04
  3.57713214149E-04  3.63827822315E-04  3.70046951175E-04  3.76372387362E-04
  3.82805948054E-04  3.89349481487E-04  3.96004867491E-04  4.02774018031E-04
  4.09658877753E-04  4.16661424543E-04  4.23783670097E-04  4.31027660499E-04
  4.38395476807E-04  4.45889235652E-04  4.53511089847E-04  4.61263229001E-04
  4.69147880156E-04  4.77167308418E-04  4.85323817614E-04  4.93619750952E-04
  5.02057491692E-04  5.10639463834E-04  5.19368132813E-04  5.28246006206E-04
  5.37275634455E-04  5.46459611597E-04  5.55800576011E-04  5.65301211175E-04
  5.74964246438E-04  5.84792457803E-04  5.94788668725E-04  6.04955750922E-04
  6.15296625199E-04  6.25814262291E-04  6.36511683710E-04  6.47391962618E-04
  6.58458224710E-04  6.69713649108E-04  6.81161469278E-04  6.92804973958E-04
  7.04647508099E-04  7.16692473835E-04  7.28943331449E-04  7.41403600377E-04
  7.54076860213E-04  7.66966751738E-04  7.80076977970E-04  7.93411305222E-04
  8.06973564189E-04  8.20767651046E-04  8.34797528566E-04  8.49067227262E-04
  8.63580846542E-04  8.78342555889E-04  8.93356596055E-04  9.08627280284E-04
  9.24158995548E-04  9.39956203808E-04  9.56023443297E-04  9.72365329820E-04
  9.88986558087E-04  1.00589190305E-03  1.02308622130E-03  1.04057445242E-03
  1.05836162045E-03  1.07645283528E-03  1.09485329419E-03  1.11356828326E-03
  1.13260317895E-03  1.15196344962E-03  1.17165465710E-03  1.19168245828E-03
  1.21205260678E-03  1.23277095454E-03  1.25384345353E-03  1.27527615749E-03
  1.29707522361E-03  1.31924691434E-03  1.34179759918E-03  1.36473375651E-03
  1.38806197543E-03  1.41178895771E-03  1.43592151963E-03  1.46046659401E-03
  1.48543123219E-03  1.51082260602E-03  1.53664800994E-03  1.56291486311E-03
  1.58963071147E-03  1.61680322997E-03  1.64444022475E-03  1.67254963539E-03
  1.70113953717E-03  1.73021814343E-03  1.75979380788E-03  1.78987502703E-03
  1.82047044264E-03  1.85158884419E-03  1.88323917137E-03  1.91543051674E-03
  1.94817212822E-03  1.98147341185E-03  2.01534393446E-03  2.04979342638E-03
  2.08483178428E-03  2.12046907401E-03  2.15671553348E-03  2.19358157558E-03
  2.23107779123E-03  2.26921495234E-03  2.30800401501E-03  2.34745612256E-03
  2.38758260884E-03  2.42839500139E-03  2.46990502484E-03  2.51212460421E-03
  2.55506586836E-03  2.59874115349E-03  2.64316300667E-03  2.68834418944E-03
  2.73429768147E-03  2.78103668431E-03  2.82857462518E-03  2.87692516080E-03
  2.92610218134E-03  2.97611981443E-03  3.02699242914E-03  3.07873464021E-03
  3.13136131216E-03  3.18488756362E-03  3.23932877164E-03  3.29470057614E-03
  3.35101888436E-03  3.40829987547E-03  3.46656000517E-03  3.52581601048E-03
  3.58608491450E-03  3.64738403132E-03  3.70973097100E-03  3.77314364460E-03
  3.83764026935E-03  3.90323937390E-03  3.96995980358E-03  4.03782072589E-03
  4.10684163596E-03  4.17704236217E-03  4.24844307181E-03  4.32106427694E-03
  4.39492684022E-03  4.47005198093E-03  4.54646128108E-03  4.62417669158E-03
  4.70322053855E-03  4.78361552978E-03  4.86538476119E-03  4.94855172348E-03
  5.03314030893E-03  5.11917481819E-03  5.20667996732E-03  5.29568089485E-03
  5.38620316902E-03  5.47827279514E-03  5.57191622302E-03  5.66716035461E-03
  5.76403255170E-03  5.86256064381E-03  5.96277293615E-03  6.06469821777E-03
  6.16836576982E-03  6.27380537400E-03  6.38104732106E-03  6.49012241954E-03
  6.60106200460E-03  6.71389794704E-03  6.82866266244E-03  6.94538912048E-03
  7.06411085441E-03  7.18486197070E-03  7.30767715880E-03  7.43259170113E-03
  7.55964148324E-03  7.68886300406E-03  7.82029338643E-03  7.95397038776E-03
  8.08993241087E-03  8.22821851502E-03  8.36886842712E-03  8.51192255317E-03
  8.65742198986E-03  8.80540853637E-03  8.95592470635E-03  9.10901374019E-03
  9.26471961742E-03  9.42308706931E-03  9.58416159177E-03  9.74798945840E-03
  9.91461773376E-03  1.00840942869E-02  1.02564678053E-02  1.04317878083E-02
  1.06101046622E-02  1.07914695938E-02  1.09759347058E-02  1.11635529914E-02
  1.13543783498E-02  1.15484656013E-02  1.17458705036E-02  1.19466497672E-02
  1.21508610720E-02  1.23585630841E-02  1.25698154723E-02  1.27846789252E-02
  1.30032151689E-02  1.32254869848E-02  1.34515582271E-02  1.36814938418E-02
  1.39153598850E-02  1.41532235418E-02  1.43951531458E-02  1.46412181987E-02
  1.48914893904E-02  1.51460386187E-02  1.54049390109E-02  1.56682649439E-02
  1.59360920663E-02  1.62084973196E-02  1.64855589604E-02  1.67673565834E-02
  1.70539711434E-02  1.73454849794E-02  1.76419818375E-02  1.79435468956E-02
  1.82502667876E-02  1.85622296280E-02  1.88795250378E-02  1.92022441698E-02
  1.95304797349E-02  1.98643260290E-02  2.02038789595E-02  2.05492360735E-02
  2.09004965854E-02  2.12577614055E-02  2.16211331692E-02  2.19907162659E-02
  2.23666168700E-02  2.27489429702E-02  2.31378044015E-02  2.35333128763E-02
  2.39355820166E-02  2.43447273863E-02  2.47608665251E-02  2.51841189818E-02
  2.56146063485E-02  2.60524522959E-02  2.64977826088E-02  2.69507252218E-02
  2.74114102567E-02  2.78799700593E-02  2.83565392378E-02  2.88412547013E-02
  2.93342556991E-02  2.98356838610E-02  3.03456832376E-02  3.08644003417E-02
  3.13919841907E-02  3.19285863494E-02  3.24743609731E-02  3.30294648522E-02
  3.35940574575E-02  3.41683009854E-02  3.47523604050E-02  3.53464035053E-02
  3.59506009433E-02  3.65651262933E-02  3.71901560965E-02  3.78258699118E-02
  3.84724503677E-02  3.91300832140E-02  3.97989573761E-02  4.04792650085E-02
  4.11712015504E-02  4.18749657818E-02  4.25907598806E-02  4.33187894805E-02
  4.40592637304E-02  4.48123953542E-02  4.55784007119E-02  4.63574998623E-02
  4.71499166253E-02  4.79558786469E-02  4.87756174645E-02  4.96093685732E-02
  5.04573714934E-02  5.13198698401E-02  5.21971113923E-02  5.30893481646E-02
  5.39968364792E-02  5.49198370401E-02  5.58586150074E-02  5.68134400740E-02
  5.77845865424E-02  5.87723334044E-02  5.97769644205E-02  6.07987682017E-02
  6.18380382925E-02  6.28950732551E-02  6.39701767552E-02  6.50636576492E-02
  6.61758300730E-02  6.73070135322E-02  6.84575329940E-02  6.96277189802E-02
  7.08179076628E-02  7.20284409599E-02  7.32596666342E-02  7.45119383931E-02
  7.57856159901E-02  7.70810653280E-02  7.83986585644E-02  7.97387742183E-02
  8.11017972791E-02  8.24881193168E-02  8.38981385950E-02  8.53322601849E-02
  8.67908960819E-02  8.82744653239E-02  8.97833941115E-02  9.13181159309E-02
  9.28790716780E-02  9.44667097850E-02  9.60814863498E-02  9.77238652663E-02
  9.93943183583E-02  1.01093325515E-01  1.02821374827E-01  1.04578962731E-01
  1.06366594147E-01  1.08184782627E-01  1.10034050502E-01  1.11914929030E-01
  1.13827958552E-01  1.15773688644E-01  1.17752678276E-01  1.19765495974E-01
  1.21812719981E-01  1.23894938426E-01  1.26012749488E-01  1.28166761576E-01
  1.30357593494E-01  1.32585874626E-01  1.34852245114E-01  1.37157356042E-01
  1.39501869625E-01  1.41886459396E-01  1.44311810400E-01  1.46778619396E-01
  1.49287595048E-01  1.51839458138E-01  1.54434941765E-01  1.57074791563E-01
  1.59759765909E-01  1.62490636145E-01  1.65268186795E-01  1.68093215798E-01
  1.70966534729E-01  1.73888969037E-01  1.76861358281E-01  1.79884556371E-01
  1.82959431812E-01  1.86086867959E-01  1.89267763261E-01  1.92503031529E-01
  1.95793602193E-01  1.99140420571E-01  2.02544448137E-01  2.06006662804E-01
  2.09528059199E-01  2.13109648951E-01  2.16752460981E-01  2.20457541799E-01
  2.24225955803E-01  2.28058785584E-01  2.31957132242E-01  2.35922115695E-01
  2.39954875007E-01  2.44056568711E-01  2.48228375144E-01  2.52471492786E-01
  2.56787140603E-01  2.61176558396E-01  2.65641007160E-01  2.70181769445E-01
  2.74800149725E-01  2.79497474769E-01  2.84275094030E-01  2.89134380024E-01
  2.94076728731E-01  2.99103559991E-01  3.04216317916E-01  3.09416471303E-01
  3.14705514054E-01  3.20084965609E-01  3.25556371381E-01  3.31121303199E-01
  3.36781359760E-01  3.42538167089E-01  3.48393379004E-01  3.54348677596E-01
  3.60405773705E-01  3.66566407420E-01  3.72832348569E-01  3.79205397238E-01
  3.85687384280E-01  3.92280171844E-01  3.98985653910E-01  4.05805756834E-01
  4.12742439899E-01  4.19797695880E-01  4.26973551615E-01  4.34272068590E-01
  4.41695343527E-01  4.49245508988E-01  4.56924733991E-01  4.64735224629E-01
  4.72679224703E-01  4.80759016372E-01  4.88976920803E-01  4.97335298841E-01
  5.05836551687E-01  5.14483121585E-01  5.23277492529E-01  5.32222190971E-01