<PP_INFO>
Generated using Vanderbilt code, version   7  3  6                              
Author: kfg        Generation date:   22    9   15                              
Automatically converted from original format                                    
    1        The Pseudo was generated with a Scalar-Relativistic Calculation
  1.55000000000E+00    Local Potential cutoff radius
nl pn  l   occ               Rcut            Rcut US             E pseu
3S  3  0  2.00      0.00000000000      1.55000000000     -7.99910041300
3P  3  1  6.00      0.00000000000      1.55000000000     -5.49756983400
4S  4  0  2.00      0.00000000000      1.55000000000     -1.03488397400
3D  3  2  5.00      0.00000000000      1.65000000000     -1.58462624400
4P  4  1  0.00      0.00000000000      1.55000000000     -0.62425716100
</PP_INFO>


<PP_HEADER>
   0                   Version Number
  Fe                   Element
   US                  Ultrasoft pseudopotential
    T                  Nonlinear Core Correction
SLA  PW   PSX  PSC     PBEsol  Exchange-Correlation functional
   16.00000000000      Z valence
 -248.43185107900      Total energy
    0.00000    0.00000 Suggested cutoff for wfc and rho
    2                  Max angular momentum component
  861                  Number of points in mesh
    5    6             Number of Wavefunctions, Number of Projectors
 Wavefunctions         nl  l   occ
                       3S  0  2.00
                       3P  1  6.00
                       4S  0  2.00
                       3D  2  5.00
                       4P  1  0.00
</PP_HEADER>


<PP_MESH>
  <PP_R>
  0.00000000000E+00  1.62964650308E-06  3.28714953876E-06  4.97298527561E-06
  6.68763802161E-06  8.43160036331E-06  1.02053733073E-05  1.20094664243E-05
  1.38443979954E-05  1.57106951607E-05  1.76088940715E-05  1.95395400435E-05
  2.15031877140E-05  2.35004012009E-05  2.55317542651E-05  2.75978304748E-05
  2.96992233740E-05  3.18365366520E-05  3.40103843176E-05  3.62213908752E-05
  3.84701915043E-05  4.07574322416E-05  4.30837701672E-05  4.54498735930E-05
  4.78564222547E-05  5.03041075071E-05  5.27936325230E-05  5.53257124945E-05
  5.79010748393E-05  6.05204594093E-05  6.31846187028E-05  6.58943180813E-05
  6.86503359889E-05  7.14534641764E-05  7.43045079282E-05  7.72042862939E-05
  8.01536323238E-05  8.31533933080E-05  8.62044310196E-05  8.93076219629E-05
  9.24638576245E-05  9.56740447299E-05  9.89391055036E-05  1.02259977935E-04
  1.05637616045E-04  1.09072990165E-04  1.12567087211E-04  1.16120910970E-04
  1.19735482386E-04  1.23411839856E-04  1.27151039526E-04  1.30954155596E-04
  1.34822280628E-04  1.38756525859E-04  1.42758021521E-04  1.46827917167E-04
  1.50967381999E-04  1.55177605205E-04  1.59459796301E-04  1.63815185478E-04
  1.68245023954E-04  1.72750584336E-04  1.77333160986E-04  1.81994070387E-04
  1.86734651530E-04  1.91556266292E-04  1.96460299828E-04  2.01448160974E-04
  2.06521282646E-04  2.11681122252E-04  2.16929162114E-04  2.22266909895E-04
  2.27695899024E-04  2.33217689145E-04  2.38833866562E-04  2.44546044694E-04
  2.50355864540E-04  2.56264995147E-04  2.62275134095E-04  2.68388007981E-04
  2.74605372915E-04  2.80929015025E-04  2.87360750971E-04  2.93902428468E-04
  3.00555926811E-04  3.07323157423E-04  3.14206064398E-04  3.21206625062E-04
  3.28326850540E-04  3.35568786336E-04  3.42934512917E-04  3.50426146314E-04
  3.58045838729E-04  3.65795779151E-04  3.73678193989E-04  3.81695347708E-04
  3.89849543481E-04  3.98143123851E-04  4.06578471402E-04  4.15158009448E-04
  4.23884202722E-04  4.32759558092E-04  4.41786625276E-04  4.50967997574E-04
  4.60306312619E-04  4.69804253127E-04  4.79464547672E-04  4.89289971470E-04
  4.99283347176E-04  5.09447545692E-04  5.19785486997E-04  5.30300140980E-04
  5.40994528299E-04  5.51871721244E-04  5.62934844623E-04  5.74187076655E-04
  5.85631649890E-04  5.97271852133E-04  6.09111027387E-04  6.21152576820E-04
  6.33399959735E-04  6.45856694568E-04  6.58526359898E-04  6.71412595475E-04
  6.84519103266E-04  6.97849648515E-04  7.11408060831E-04  7.25198235283E-04
  7.39224133522E-04  7.53489784916E-04  7.67999287712E-04  7.82756810208E-04
  7.97766591956E-04  8.13032944975E-04  8.28560254992E-04  8.44352982704E-04
  8.60415665056E-04  8.76752916546E-04  8.93369430549E-04  9.10269980669E-04
  9.27459422106E-04  9.44942693055E-04  9.62724816121E-04  9.80810899764E-04
  9.99206139766E-04  1.01791582072E-03  1.03694531756E-03  1.05630009710E-03
  1.07598571957E-03  1.09600784029E-03  1.11637221122E-03  1.13708468265E-03
  1.15815120487E-03  1.17957782989E-03  1.20137071316E-03  1.22353611536E-03
  1.24608040417E-03  1.26901005613E-03  1.29233165850E-03  1.31605191111E-03
  1.34017762833E-03  1.36471574102E-03  1.38967329850E-03  1.41505747059E-03
  1.44087554968E-03  1.46713495280E-03  1.49384322377E-03  1.52100803536E-03
  1.54863719149E-03  1.57673862948E-03  1.60532042233E-03  1.63439078105E-03
  1.66395805698E-03  1.69403074422E-03  1.72461748208E-03  1.75572705754E-03
  1.78736840778E-03  1.81955062274E-03  1.85228294775E-03  1.88557478617E-03
  1.91943570211E-03  1.95387542315E-03  1.98890384316E-03  2.02453102512E-03
  2.06076720403E-03  2.09762278985E-03  2.13510837048E-03  2.17323471479E-03
  2.21201277575E-03  2.25145369353E-03  2.29156879877E-03  2.33236961574E-03
  2.37386786574E-03  2.41607547041E-03  2.45900455517E-03  2.50266745272E-03
  2.54707670657E-03  2.59224507464E-03  2.63818553292E-03  2.68491127922E-03
  2.73243573694E-03  2.78077255895E-03  2.82993563146E-03  2.87993907809E-03
  2.93079726385E-03  2.98252479932E-03  3.03513654481E-03  3.08864761467E-03
  3.14307338159E-03  3.19842948103E-03  3.25473181574E-03  3.31199656029E-03
  3.37024016572E-03  3.42947936431E-03  3.48973117431E-03  3.55101290493E-03
  3.61334216120E-03  3.67673684912E-03  3.74121518075E-03  3.80679567948E-03
  3.87349718531E-03  3.94133886029E-03  4.01034019402E-03  4.08052100926E-03
  4.15190146758E-03  4.22450207522E-03  4.29834368893E-03  4.37344752197E-03
  4.44983515022E-03  4.52752851836E-03  4.60654994621E-03  4.68692213508E-03
  4.76866817435E-03  4.85181154807E-03  4.93637614173E-03  5.02238624911E-03
  5.10986657923E-03  5.19884226350E-03  5.28933886293E-03  5.38138237542E-03
  5.47499924330E-03  5.57021636088E-03  5.66706108221E-03  5.76556122888E-03
  5.86574509810E-03  5.96764147074E-03  6.07127961966E-03  6.17668931811E-03
  6.28390084823E-03  6.39294500984E-03  6.50385312920E-03  6.61665706808E-03
  6.73138923287E-03  6.84808258389E-03  6.96677064489E-03  7.08748751264E-03
  7.21026786678E-03  7.33514697972E-03  7.46216072681E-03  7.59134559665E-03
  7.72273870154E-03  7.85637778819E-03  7.99230124851E-03  8.13054813069E-03
  8.27115815039E-03  8.41417170213E-03  8.55962987095E-03  8.70757444416E-03
  8.85804792338E-03  9.01109353672E-03  9.16675525123E-03  9.32507778550E-03
  9.48610662255E-03  9.64988802282E-03  9.81646903756E-03  9.98589752226E-03
  1.01582221505E-02  1.03334924277E-02  1.05117587057E-02  1.06930721969E-02
  1.08774849892E-02  1.10650500608E-02  1.12558212956E-02  1.14498534984E-02
  1.16472024108E-02  1.18479247276E-02  1.20520781122E-02  1.22597212139E-02
  1.24709136848E-02  1.26857161961E-02  1.29041904567E-02  1.31263992298E-02
  1.33524063517E-02  1.35822767500E-02  1.38160764619E-02  1.40538726536E-02
  1.42957336394E-02  1.45417289011E-02  1.47919291086E-02  1.50464061394E-02
  1.53052330999E-02  1.55684843460E-02  1.58362355048E-02  1.61085634960E-02
  1.63855465541E-02  1.66672642511E-02  1.69537975189E-02  1.72452286731E-02
  1.75416414361E-02  1.78431209616E-02  1.81497538588E-02  1.84616282175E-02
  1.87788336331E-02  1.91014612325E-02  1.94296037005E-02  1.97633553061E-02
  2.01028119295E-02  2.04480710902E-02  2.07992319744E-02  2.11563954638E-02
  2.15196641646E-02  2.18891424369E-02  2.22649364246E-02  2.26471540860E-02
  2.30359052249E-02  2.34313015220E-02  2.38334565670E-02  2.42424858912E-02
  2.46585070009E-02  2.50816394108E-02  2.55120046788E-02  2.59497264404E-02
  2.63949304446E-02  2.68477445899E-02  2.73082989611E-02  2.77767258665E-02
  2.82531598761E-02  2.87377378602E-02  2.92305990287E-02  2.97318849709E-02
  3.02417396968E-02  3.07603096776E-02  3.12877438886E-02  3.18241938513E-02
  3.23698136774E-02  3.29247601129E-02  3.34891925833E-02  3.40632732391E-02
  3.46471670024E-02  3.52410416148E-02  3.58450676848E-02  3.64594187375E-02
  3.70842712641E-02  3.77198047725E-02  3.83662018394E-02  3.90236481619E-02
  3.96923326118E-02  4.03724472892E-02  4.10641875777E-02  4.17677522011E-02
  4.24833432799E-02  4.32111663894E-02  4.39514306193E-02  4.47043486330E-02
  4.54701367294E-02  4.62490149045E-02  4.70412069151E-02  4.78469403424E-02
  4.86664466583E-02  4.94999612908E-02  5.03477236928E-02  5.12099774099E-02
  5.20869701508E-02  5.29789538588E-02  5.38861847834E-02  5.48089235544E-02
  5.57474352570E-02  5.67019895074E-02  5.76728605304E-02  5.86603272387E-02
  5.96646733122E-02  6.06861872801E-02  6.17251626037E-02  6.27818977605E-02
  6.38566963299E-02  6.49498670809E-02  6.60617240602E-02  6.71925866829E-02
  6.83427798239E-02  6.95126339114E-02  7.07024850218E-02  7.19126749764E-02
  7.31435514393E-02  7.43954680176E-02  7.56687843625E-02  7.69638662733E-02
  7.82810858019E-02  7.96208213601E-02  8.09834578278E-02  8.23693866643E-02
  8.37790060200E-02  8.52127208513E-02  8.66709430367E-02  8.81540914953E-02
  8.96625923068E-02  9.11968788345E-02  9.27573918491E-02  9.43445796558E-02
  9.59588982229E-02  9.76008113130E-02  9.92707906159E-02  1.00969315884E-01
  1.02696875072E-01  1.04453964472E-01  1.06241088864E-01  1.08058761653E-01
  1.09907505022E-01  1.11787850078E-01  1.13700337009E-01  1.15645515235E-01
  1.17623943568E-01  1.19636190373E-01  1.21682833728E-01  1.23764461594E-01
  1.25881671985E-01  1.28035073132E-01  1.30225283666E-01  1.32452932792E-01
  1.34718660472E-01  1.37023117604E-01  1.39366966214E-01  1.41750879646E-01
  1.44175542751E-01  1.46641652087E-01  1.49149916121E-01  1.51701055428E-01
  1.54295802901E-01  1.56934903961E-01  1.59619116770E-01  1.62349212451E-01
  1.65125975308E-01  1.67950203050E-01  1.70822707024E-01  1.73744312445E-01
  1.76715858632E-01  1.79738199255E-01  1.82812202573E-01  1.85938751687E-01
  1.89118744795E-01  1.92353095447E-01  1.95642732810E-01  1.98988601932E-01
  2.02391664017E-01  2.05852896700E-01  2.09373294324E-01  2.12953868233E-01
  2.16595647056E-01  2.20299677005E-01  2.24067022176E-01  2.27898764856E-01
  2.31796005829E-01  2.35759864698E-01  2.39791480201E-01  2.43892010546E-01
  2.48062633733E-01  2.52304547904E-01  2.56618971677E-01  2.61007144504E-01
  2.65470327020E-01  2.70009801413E-01  2.74626871786E-01  2.79322864532E-01
  2.84099128721E-01  2.88957036481E-01  2.93897983393E-01  2.98923388898E-01
  3.04034696696E-01  3.09233375168E-01  3.14520917793E-01  3.19898843579E-01
  3.25368697501E-01  3.30932050943E-01  3.36590502147E-01  3.42345676677E-01
  3.48199227884E-01  3.54152837380E-01  3.60208215521E-01  3.66367101900E-01
  3.72631265847E-01  3.79002506934E-01  3.85482655495E-01  3.92073573153E-01
  3.98777153349E-01  4.05595321893E-01  4.12530037513E-01  4.19583292418E-01
  4.26757112873E-01  4.34053559776E-01  4.41474729256E-01  4.49022753271E-01
  4.56699800222E-01  4.64508075577E-01  4.72449822502E-01  4.80527322506E-01
  4.88742896101E-01  4.97098903460E-01  5.05597745103E-01  5.14241862583E-01
  5.23033739187E-01  5.31975900652E-01  5.41070915888E-01  5.50321397715E-01
  5.59730003620E-01  5.69299436511E-01  5.79032445503E-01  5.88931826700E-01
  5.99000424003E-01  6.09241129924E-01  6.19656886422E-01  6.30250685740E-01
  6.41025571273E-01  6.51984638436E-01  6.63131035558E-01  6.74467964783E-01
  6.85998682991E-01  6.97726502734E-01  7.09654793188E-01  7.21786981120E-01
  7.34126551873E-01  7.46677050367E-01  7.59442082117E-01  7.72425314270E-01
  7.85630476656E-01  7.99061362865E-01  8.12721831329E-01  8.26615806436E-01
  8.40747279657E-01  8.55120310691E-01  8.69739028632E-01  8.84607633153E-01
  8.99730395718E-01  9.15111660803E-01  9.30755847149E-01  9.46667449027E-01
  9.62851037532E-01  9.79311261898E-01  9.96052850826E-01  1.01308061385E+00
  1.03039944272E+00  1.04801431280E+00  1.06593028451E+00  1.08415250474E+00
  1.10268620840E+00  1.12153671985E+00  1.14070945449E+00  1.16020992027E+00
  1.18004371930E+00  1.20021654944E+00  1.22073420597E+00  1.24160258319E+00
  1.26282767620E+00  1.28441558255E+00  1.30637250403E+00  1.32870474844E+00
  1.35141873141E+00  1.37452097821E+00  1.39801812568E+00  1.42191692409E+00
  1.44622423911E+00  1.47094705375E+00  1.49609247041E+00  1.52166771287E+00
  1.54768012841E+00  1.57413718988E+00  1.60104649790E+00  1.62841578299E+00
  1.65625290781E+00  1.68456586942E+00  1.71336280161E+00  1.74265197715E+00
  1.77244181028E+00  1.80274085903E+00  1.83355782773E+00  1.86490156951E+00
  1.89678108880E+00  1.92920554399E+00  1.96218424998E+00  1.99572668093E+00
  2.02984247293E+00  2.06454142677E+00  2.09983351081E+00  2.13572886376E+00
  2.17223779768E+00  2.20937080088E+00  2.24713854094E+00  2.28555186780E+00
  2.32462181688E+00  2.36435961222E+00  2.40477666970E+00  2.44588460038E+00
  2.48769521376E+00  2.53022052122E+00  2.57347273947E+00  2.61746429402E+00
  2.66220782281E+00  2.70771617977E+00  2.75400243859E+00  2.80107989640E+00
  2.84896207765E+00  2.89766273796E+00  2.94719586809E+00  2.99757569796E+00
  3.04881670071E+00  3.10093359688E+00  3.15394135866E+00  3.20785521415E+00
  3.26269065176E+00  3.31846342464E+00  3.37518955524E+00  3.43288533987E+00
  3.49156735342E+00  3.55125245410E+00  3.61195778827E+00  3.67370079541E+00
  3.73649921309E+00  3.80037108207E+00  3.86533475152E+00  3.93140888423E+00
  3.99861246202E+00  4.06696479119E+00  4.13648550803E+00  4.20719458450E+00
  4.27911233395E+00  4.35225941696E+00  4.42665684727E+00  4.50232599781E+00
  4.57928860689E+00  4.65756678435E+00  4.73718301801E+00  4.81816018007E+00
  4.90052153371E+00  4.98429073974E+00  5.06949186344E+00  5.15614938144E+00
  5.24428818877E+00  5.33393360600E+00  5.42511138653E+00  5.51784772397E+00
  5.61216925968E+00  5.70810309040E+00  5.80567677607E+00  5.90491834772E+00
  6.00585631554E+00  6.10851967705E+00  6.21293792544E+00  6.31914105806E+00
  6.42715958502E+00  6.53702453794E+00  6.64876747890E+00  6.76242050949E+00
  6.87801628002E+00  6.99558799892E+00  7.11516944227E+00  7.23679496350E+00
  7.36049950328E+00  7.48631859952E+00  7.61428839762E+00  7.74444566082E+00
  7.87682778079E+00  8.01147278834E+00  8.14841936438E+00  8.28770685102E+00
  8.42937526285E+00  8.57346529846E+00  8.72001835214E+00  8.86907652574E+00
  9.02068264079E+00  9.17488025079E+00  9.33171365374E+00  9.49122790483E+00
  9.65346882942E+00  9.81848303620E+00  9.98631793054E+00  1.01570217282E+01
  1.03306434690E+01  1.05072330311E+01  1.06868411454E+01  1.08695194097E+01
  1.10553203041E+01  1.12442972053E+01  1.14365044030E+01  1.16319971145E+01
  1.18308315010E+01  1.20330646839E+01  1.22387547608E+01  1.24479608226E+01
  1.26607429699E+01  1.28771623311E+01  1.30972810793E+01  1.33211624502E+01
  1.35488707608E+01  1.37804714271E+01  1.40160309836E+01  1.42556171019E+01
  1.44992986106E+01  1.47471455146E+01  1.49992290155E+01  1.52556215320E+01
  1.55163967208E+01  1.57816294975E+01  1.60513960583E+01  1.63257739021E+01
  1.66048418521E+01  1.68886800792E+01  1.71773701248E+01  1.74709949237E+01
  1.77696388288E+01  1.80733876347E+01  1.83823286025E+01  1.86965504850E+01
  1.90161435520E+01  1.93411996165E+01  1.96718120608E+01  2.00080758633E+01
  2.03500876263E+01  2.06979456031E+01  2.10517497265E+01  2.14116016376E+01
  2.17776047149E+01  2.21498641040E+01  2.25284867479E+01  2.29135814174E+01
  2.33052587429E+01  2.37036312456E+01  2.41088133703E+01  2.45209215179E+01
  2.49400740792E+01  2.53663914685E+01  2.57999961587E+01  2.62410127158E+01
  2.66895678355E+01  2.71457903790E+01  2.76098114101E+01  2.80817642332E+01
  2.85617844311E+01  2.90500099044E+01  2.95465809108E+01  3.00516401055E+01
  3.05653325823E+01  3.10878059150E+01  3.16192102002E+01  3.21596981000E+01
  3.27094248862E+01  3.32685484845E+01  3.38372295205E+01  3.44156313651E+01
  3.50039201820E+01  3.56022649752E+01  3.62108376376E+01  3.68298130003E+01
  3.74593688830E+01  3.80996861449E+01  3.87509487368E+01  3.94133437538E+01
  4.00870614891E+01  4.07722954888E+01  4.14692426075E+01  4.21781030645E+01
  4.28990805017E+01  4.36323820420E+01  4.43782183487E+01  4.51368036861E+01
  4.59083559813E+01  4.66930968861E+01  4.74912518415E+01  4.83030501419E+01
  4.91287250014E+01  4.99685136202E+01  5.08226572534E+01  5.16914012800E+01
  5.25749952733E+01  5.34736930728E+01  5.43877528569E+01  5.53174372174E+01
  5.62630132345E+01  5.72247525540E+01  5.82029314649E+01  5.91978309791E+01
  6.02097369120E+01  6.12389399647E+01  6.22857358071E+01  6.33504251636E+01
  6.44333138987E+01  6.55347131054E+01  6.66549391945E+01  6.77943139851E+01
  6.89531647977E+01  7.01318245476E+01  7.13306318409E+01  7.25499310719E+01
  7.37900725215E+01  7.50514124585E+01  7.63343132414E+01  7.76391434227E+01
  7.89662778549E+01  8.03160977981E+01  8.16889910293E+01  8.30853519544E+01
  8.45055817206E+01  8.59500883326E+01  8.74192867692E+01  8.89135991027E+01
  9.04334546199E+01  9.19792899462E+01  9.35515491699E+01  9.51506839708E+01
  9.67771537493E+01  9.84314257588E+01  1.00113975240E+02  1.01825285556E+02
  1.03565848333E+02  1.05336163602E+02  1.07136739940E+02  1.08968094617E+02
  1.10830753747E+02  1.12725252435E+02  1.14652134934E+02  1.16611954800E+02
  1.18605275052E+02  1.20632668332E+02  1.22694717070E+02  1.24792013653E+02
  1.26925160595E+02  1.29094770707E+02  1.31301467275E+02  1.33545884242E+02
  1.35828666384E+02  1.38150469501E+02  1.40511960602E+02  1.42913818098E+02
  1.45356731996E+02  1.47841404097E+02  1.50368548200E+02  1.52938890305E+02
  1.55553168821E+02  1.58212134779E+02  1.60916552050E+02  1.63667197560E+02
  1.66464861515E+02  1.69310347632E+02  1.72204473363E+02  1.75148070133E+02
  1.78141983583E+02  1.81187073805E+02  1.84284215594E+02  1.87434298699E+02
  1.90638228079E+02  1.93896924161E+02  1.97211323104E+02  2.00582377071E+02
  2.04011054501E+02
  </PP_R>
  <PP_RAB>
  1.61587495219E-06  1.64349607937E-06  1.67158935116E-06  1.70016283822E-06
  1.72922474917E-06  1.75878343293E-06  1.78884738113E-06  1.81942523057E-06
  1.85052576568E-06  1.88215792102E-06  1.91433078392E-06  1.94705359700E-06
  1.98033576091E-06  2.01418683696E-06  2.04861654991E-06  2.08363479075E-06
  2.11925161955E-06  2.15547726833E-06  2.19232214402E-06  2.22979683144E-06
  2.26791209633E-06  2.30667888849E-06  2.34610834486E-06  2.38621179275E-06
  2.42700075312E-06  2.46848694384E-06  2.51068228309E-06  2.55359889278E-06
  2.59724910201E-06  2.64164545066E-06  2.68680069292E-06  2.73272780103E-06
  2.77943996896E-06  2.82695061620E-06  2.87527339165E-06  2.92442217751E-06
  2.97441109328E-06  3.02525449979E-06  3.07696700337E-06  3.12956346004E-06
  3.18305897973E-06  3.23746893067E-06  3.29280894378E-06  3.34909491719E-06
  3.40634302075E-06  3.46456970075E-06  3.52379168459E-06  3.58402598558E-06
  3.64528990789E-06  3.70760105145E-06  3.77097731705E-06  3.83543691146E-06
  3.90099835267E-06  3.96768047522E-06  4.03550243560E-06  4.10448371773E-06
  4.17464413861E-06  4.24600385397E-06  4.31858336408E-06  4.39240351961E-06
  4.46748552768E-06  4.54385095789E-06  4.62152174856E-06  4.70052021299E-06
  4.78086904592E-06  4.86259133002E-06  4.94571054251E-06  5.03025056193E-06
  5.11623567500E-06  5.20369058358E-06  5.29264041176E-06  5.38311071312E-06
  5.47512747802E-06  5.56871714109E-06  5.66390658884E-06  5.76072316735E-06
  5.85919469016E-06  5.95934944621E-06  6.06121620805E-06  6.16482424001E-06
  6.27020330668E-06  6.37738368143E-06  6.48639615510E-06  6.59727204487E-06
  6.71004320323E-06  6.82474202716E-06  6.94140146741E-06  7.06005503799E-06
  7.18073682575E-06  7.30348150025E-06  7.42832432366E-06  7.55530116091E-06
  7.68444848997E-06  7.81580341239E-06  7.94940366388E-06  8.08528762522E-06
  8.22349433323E-06  8.36406349204E-06  8.50703548444E-06  8.65245138351E-06
  8.80035296443E-06  8.95078271647E-06  9.10378385517E-06  9.25940033481E-06
  9.41767686099E-06  9.57865890349E-06  9.74239270934E-06  9.90892531609E-06
  1.00783045653E-05  1.02505791165E-05  1.04257984606E-05  1.06040129349E-05
  1.07852737369E-05  1.09696329394E-05  1.11571435051E-05  1.13478593023E-05
  1.15418351198E-05  1.17391266833E-05  1.19397906706E-05  1.21438847288E-05
  1.23514674901E-05  1.25625985889E-05  1.27773386793E-05  1.29957494518E-05
  1.32178936516E-05  1.34438350965E-05  1.36736386951E-05  1.39073704655E-05
  1.41450975543E-05  1.43868882559E-05  1.46328120321E-05  1.48829395320E-05
  1.51373426125E-05  1.53960943585E-05  1.56592691046E-05  1.59269424557E-05
  1.61991913091E-05  1.64760938767E-05  1.67577297073E-05  1.70441797093E-05
  1.73355261743E-05  1.76318528006E-05  1.79332447170E-05  1.82397885075E-05
  1.85515722364E-05  1.88686854729E-05  1.91912193177E-05  1.95192664284E-05
  1.98529210466E-05  2.01922790249E-05  2.05374378542E-05  2.08884966920E-05
  2.12455563907E-05  2.16087195266E-05  2.19780904295E-05  2.23537752125E-05
  2.27358818025E-05  2.31245199714E-05  2.35198013674E-05  2.39218395472E-05
  2.43307500087E-05  2.47466502237E-05  2.51696596725E-05  2.55998998775E-05
  2.60374944384E-05  2.64825690675E-05  2.69352516263E-05  2.73956721616E-05
  2.78639629435E-05  2.83402585027E-05  2.88246956697E-05  2.93174136141E-05
  2.98185538840E-05  3.03282604475E-05  3.08466797333E-05  3.13739606733E-05
  3.19102547451E-05  3.24557160156E-05  3.30105011852E-05  3.35747696331E-05
  3.41486834625E-05  3.47324075480E-05  3.53261095820E-05  3.59299601237E-05
  3.65441326477E-05  3.71688035938E-05  3.78041524179E-05  3.84503616435E-05
  3.91076169140E-05  3.97761070460E-05  4.04560240839E-05  4.11475633546E-05
  4.18509235241E-05  4.25663066540E-05  4.32939182601E-05  4.40339673712E-05
  4.47866665890E-05  4.55522321495E-05  4.63308839848E-05  4.71228457865E-05
  4.79283450699E-05  4.87476132394E-05  4.95808856549E-05  5.04284016994E-05
  5.12904048479E-05  5.21671427372E-05  5.30588672371E-05  5.39658345229E-05
  5.48883051486E-05  5.58265441223E-05  5.67808209817E-05  5.77514098723E-05
  5.87385896255E-05  5.97426438387E-05  6.07638609575E-05  6.18025343577E-05
  6.28589624301E-05  6.39334486660E-05  6.50263017446E-05  6.61378356213E-05
  6.72683696184E-05  6.84182285164E-05  6.95877426475E-05  7.07772479904E-05
  7.19870862671E-05  7.32176050407E-05  7.44691578154E-05  7.57421041381E-05
  7.70368097016E-05  7.83536464499E-05  7.96929926845E-05  8.10552331738E-05
  8.24407592631E-05  8.38499689873E-05  8.52832671850E-05  8.67410656150E-05
  8.82237830747E-05  8.97318455201E-05  9.12656861883E-05  9.28257457220E-05
  9.44124722963E-05  9.60263217468E-05  9.76677577015E-05  9.93372517129E-05
  1.01035283395E-04  1.02762340558E-04  1.04518919353E-04  1.06305524412E-04
  1.08122668990E-04  1.09970875119E-04  1.11850673752E-04  1.13762604920E-04
  1.15707217882E-04  1.17685071289E-04  1.19696733340E-04  1.21742781946E-04
  1.23823804898E-04  1.25940400032E-04  1.28093175407E-04  1.30282749472E-04
  1.32509751249E-04  1.34774820515E-04  1.37078607978E-04  1.39421775472E-04
  1.41804996145E-04  1.44228954649E-04  1.46694347341E-04  1.49201882480E-04
  1.51752280433E-04  1.54346273880E-04  1.56984608024E-04  1.59668040808E-04
  1.62397343131E-04  1.65173299068E-04  1.67996706097E-04  1.70868375330E-04
  1.73789131740E-04  1.76759814404E-04  1.79781276743E-04  1.82854386764E-04
  1.85980027311E-04  1.89159096322E-04  1.92392507081E-04  1.95681188484E-04
  1.99026085305E-04  2.02428158470E-04  2.05888385328E-04  2.09407759934E-04
  2.12987293338E-04  2.16628013870E-04  2.20330967438E-04  2.24097217829E-04
  2.27927847015E-04  2.31823955461E-04  2.35786662443E-04  2.39817106370E-04
  2.43916445111E-04  2.48085856327E-04  2.52326537809E-04  2.56639707823E-04
  2.61026605458E-04  2.65488490986E-04  2.70026646220E-04  2.74642374885E-04
  2.79337002989E-04  2.84111879208E-04  2.88968375273E-04  2.93907886360E-04
  2.98931831495E-04  3.04041653962E-04  3.09238821711E-04  3.14524827791E-04
  3.19901190767E-04  3.25369455164E-04  3.30931191910E-04  3.36587998784E-04
  3.42341500876E-04  3.48193351057E-04  3.54145230450E-04  3.60198848915E-04
  3.66355945539E-04  3.72618289137E-04  3.78987678758E-04  3.85465944206E-04
  3.92054946561E-04  3.98756578715E-04  4.05572765918E-04  4.12505466329E-04
  4.19556671577E-04  4.26728407339E-04  4.34022733915E-04  4.41441746823E-04
  4.48987577403E-04  4.56662393425E-04  4.64468399717E-04  4.72407838791E-04
  4.80482991497E-04  4.88696177668E-04  4.97049756794E-04  5.05546128697E-04
  5.14187734220E-04  5.22977055929E-04  5.31916618826E-04  5.41008991075E-04
  5.50256784738E-04  5.59662656527E-04  5.69229308568E-04  5.78959489174E-04
  5.88855993637E-04  5.98921665033E-04  6.09159395034E-04  6.19572124741E-04
  6.30162845530E-04  6.40934599911E-04  6.51890482399E-04  6.63033640408E-04
  6.74367275152E-04  6.85894642565E-04  6.97619054236E-04  7.09543878361E-04
  7.21672540713E-04  7.34008525620E-04  7.46555376974E-04  7.59316699240E-04
  7.72296158501E-04  7.85497483504E-04  7.98924466733E-04  8.12580965502E-04
  8.26470903058E-04  8.40598269712E-04  8.54967123983E-04  8.69581593763E-04
  8.84445877509E-04  8.99564245440E-04  9.14941040772E-04  9.30580680960E-04
  9.46487658970E-04  9.62666544569E-04  9.79121985638E-04  9.95858709506E-04
  1.01288152431E-03  1.03019532038E-03  1.04780507163E-03  1.06571583699E-03
  1.08393276190E-03  1.10246107971E-03  1.12130611326E-03  1.14047327636E-03
  1.15996807536E-03  1.17979611074E-03  1.19996307871E-03  1.22047477286E-03
  1.24133708579E-03  1.26255601084E-03  1.28413764381E-03  1.30608818467E-03
  1.32841393939E-03  1.35112132173E-03  1.37421685508E-03  1.39770717435E-03
  1.42159902783E-03  1.44589927921E-03  1.47061490947E-03  1.49575301894E-03
  1.52132082931E-03  1.54732568571E-03  1.57377505883E-03  1.60067654708E-03
  1.62803787873E-03  1.65586691416E-03  1.68417164810E-03  1.71296021197E-03
  1.74224087617E-03  1.77202205245E-03  1.80231229638E-03  1.83312030975E-03
  1.86445494312E-03  1.89632519832E-03  1.92874023104E-03  1.96170935352E-03
  1.99524203713E-03  2.02934791517E-03  2.06403678559E-03  2.09931861384E-03
  2.13520353571E-03  2.17170186023E-03  2.20882407268E-03  2.24658083753E-03
  2.28498300159E-03  2.32404159705E-03  2.36376784469E-03  2.40417315709E-03
  2.44526914191E-03  2.48706760524E-03  2.52958055497E-03  2.57282020424E-03
  2.61679897497E-03  2.66152950140E-03  2.70702463376E-03  2.75329744192E-03
  2.80036121915E-03  2.84822948597E-03  2.89691599400E-03  2.94643472994E-03
  2.99679991957E-03  3.04802603182E-03  3.10012778297E-03  3.15312014084E-03
  3.20701832911E-03  3.26183783168E-03  3.31759439715E-03  3.37430404329E-03
  3.43198306169E-03  3.49064802240E-03  3.55031577875E-03  3.61100347212E-03
  3.67272853691E-03  3.73550870554E-03  3.79936201353E-03  3.86430680471E-03
  3.93036173646E-03  3.99754578508E-03  4.06587825125E-03  4.13537876556E-03
  4.20606729416E-03  4.27796414451E-03  4.35108997118E-03  4.42546578180E-03
  4.50111294310E-03  4.57805318704E-03  4.65630861708E-03  4.73590171448E-03
  4.81685534480E-03  4.89919276446E-03  4.98293762738E-03  5.06811399187E-03
  5.15474632743E-03  5.24285952186E-03  5.33247888839E-03  5.42363017290E-03
  5.51633956142E-03  5.61063368754E-03  5.70653964015E-03  5.80408497118E-03
  5.90329770350E-03  6.00420633902E-03  6.10683986683E-03  6.21122777157E-03
  6.31740004185E-03  6.42538717891E-03  6.53522020538E-03  6.64693067415E-03
  6.76055067748E-03  6.87611285619E-03  6.99365040907E-03  7.11319710238E-03
  7.23478727957E-03  7.35845587115E-03  7.48423840471E-03  7.61217101513E-03
  7.74229045499E-03  7.87463410507E-03  8.00923998515E-03  8.14614676489E-03
  8.28539377496E-03  8.42702101834E-03  8.57106918178E-03  8.71757964754E-03
  8.86659450525E-03  9.01815656397E-03  9.17230936457E-03  9.32909719216E-03
  9.48856508885E-03  9.65075886667E-03  9.81572512077E-03  9.98351124275E-03
  1.01541654343E-02  1.03277367211E-02  1.05042749668E-02  1.06838308875E-02
  1.08664560660E-02  1.10522029671E-02  1.12411249522E-02  1.14332762950E-02
  1.16287121968E-02  1.18274888026E-02  1.20296632171E-02  1.22352935211E-02
  1.24444387881E-02  1.26571591015E-02  1.28735155719E-02  1.30935703541E-02
  1.33173866657E-02  1.35450288049E-02  1.37765621687E-02  1.40120532722E-02
  1.42515697674E-02  1.44951804629E-02  1.47429553433E-02  1.49949655894E-02
  1.52512835990E-02  1.55119830072E-02  1.57771387080E-02  1.60468268754E-02
  1.63211249857E-02  1.66001118393E-02  1.68838675839E-02  1.71724737369E-02
  1.74660132093E-02  1.77645703293E-02  1.80682308666E-02  1.83770820570E-02
  1.86912126274E-02  1.90107128216E-02  1.93356744257E-02  1.96661907948E-02
  2.00023568801E-02  2.03442692554E-02  2.06920261456E-02  2.10457274544E-02
  2.14054747936E-02  2.17713715114E-02  2.21435227230E-02  2.25220353401E-02
  2.29070181022E-02  2.32985816073E-02  2.36968383441E-02  2.41019027239E-02
  2.45138911140E-02  2.49329218707E-02  2.53591153734E-02  2.57925940592E-02
  2.62334824581E-02  2.66819072289E-02  2.71379971954E-02  2.76018833833E-02
  2.80736990581E-02  2.85535797635E-02  2.90416633598E-02  2.95380900640E-02
  3.00430024899E-02  3.05565456890E-02  3.10788671925E-02  3.16101170530E-02
  3.21504478885E-02  3.27000149256E-02  3.32589760442E-02  3.38274918230E-02
  3.44057255856E-02  3.49938434473E-02  3.55920143632E-02  3.62004101760E-02
  3.68192056662E-02  3.74485786017E-02  3.80887097891E-02  3.87397831259E-02
  3.94019856526E-02  4.00755076074E-02  4.07605424801E-02  4.14572870678E-02
  4.21659415319E-02  4.28867094550E-02  4.36197978998E-02  4.43654174686E-02
  4.51237823632E-02  4.58951104473E-02  4.66796233086E-02  4.74775463223E-02
  4.82891087164E-02  4.91145436370E-02  4.99540882155E-02  5.08079836370E-02