<PP_INFO>
Generated using Vanderbilt code, version   7  3  6                              
Author: kfg        Generation date:   22    9   15                              
Automatically converted from original format                                    
    1        The Pseudo was generated with a Scalar-Relativistic Calculation
  1.80000000000E+00    Local Potential cutoff radius
nl pn  l   occ               Rcut            Rcut US             E pseu
3P  3  1  6.00      0.00000000000      1.40000000000     -7.86402282700
4S  4  0  2.00      0.00000000000      1.80000000000     -1.20261914400
3D  3  2 10.00      0.00000000000      1.80000000000     -2.01816922200
4P  4  1  0.00      0.00000000000      1.40000000000     -0.66530081900
</PP_INFO>


<PP_HEADER>
   0                   Version Number
  Ga                   Element
   US                  Ultrasoft pseudopotential
    T                  Nonlinear Core Correction
SLA  PW   PSX  PSC     PBEsol  Exchange-Correlation functional
   19.00000000000      Z valence
 -414.33858234800      Total energy
    0.00000    0.00000 Suggested cutoff for wfc and rho
    2                  Max angular momentum component
  871                  Number of points in mesh
    4    6             Number of Wavefunctions, Number of Projectors
 Wavefunctions         nl  l   occ
                       3P  1  6.00
                       4S  0  2.00
                       3D  2 10.00
                       4P  1  0.00
</PP_HEADER>


<PP_MESH>
  <PP_R>
  0.00000000000E+00  1.36680029290E-06  2.75696412929E-06  4.17089087632E-06
  5.60898672780E-06  7.07166482084E-06  8.55934535454E-06  1.00724557107E-05
  1.16114305768E-05  1.31767120703E-05  1.47687498664E-05  1.63880013268E-05
  1.80349316311E-05  1.97100139105E-05  2.14137293836E-05  2.31465674950E-05
  2.49090260556E-05  2.67016113855E-05  2.85248384599E-05  3.03792310567E-05
  3.22653219068E-05  3.41836528478E-05  3.61347749790E-05  3.81192488199E-05
  4.01376444717E-05  4.21905417802E-05  4.42785305031E-05  4.64022104793E-05
  4.85621918007E-05  5.07590949884E-05  5.29935511701E-05  5.52662022617E-05
  5.75777011520E-05  5.99287118899E-05  6.23199098752E-05  6.47519820529E-05
  6.72256271103E-05  6.97415556776E-05  7.23004905326E-05  7.49031668076E-05
  7.75503322012E-05  8.02427471928E-05  8.29811852611E-05  8.57664331064E-05
  8.85992908764E-05  9.14805723965E-05  9.44111054030E-05  9.73917317813E-05
  1.00423307808E-04  1.03506704396E-04  1.06642807345E-04  1.09832517597E-04
  1.13076751495E-04  1.16376441043E-04  1.19732534179E-04  1.23145995043E-04
  1.26617804257E-04  1.30148959204E-04  1.33740474317E-04  1.37393381368E-04
  1.41108729768E-04  1.44887586863E-04  1.48731038246E-04  1.52640188067E-04
  1.56616159348E-04  1.60660094309E-04  1.64773154695E-04  1.68956522108E-04
  1.73211398348E-04  1.77539005759E-04  1.81940587580E-04  1.86417408299E-04
  1.90970754020E-04  1.95601932831E-04  2.00312275181E-04  2.05103134260E-04
  2.09975886388E-04  2.14931931414E-04  2.19972693112E-04  2.25099619597E-04
  2.30314183735E-04  2.35617883569E-04  2.41012242750E-04  2.46498810973E-04
  2.52079164422E-04  2.57754906226E-04  2.63527666914E-04  2.69399104890E-04
  2.75370906904E-04  2.81444788539E-04  2.87622494704E-04  2.93905800134E-04
  3.00296509902E-04  3.06796459933E-04  3.13407517540E-04  3.20131581949E-04
  3.26970584855E-04  3.33926490972E-04  3.41001298595E-04  3.48197040182E-04
  3.55515782928E-04  3.62959629368E-04  3.70530717973E-04  3.78231223772E-04
  3.86063358971E-04  3.94029373590E-04  4.02131556112E-04  4.10372234136E-04
  4.18753775050E-04  4.27278586709E-04  4.35949118126E-04  4.44767860177E-04
  4.53737346316E-04  4.62860153302E-04  4.72138901941E-04  4.81576257840E-04
  4.91174932166E-04  5.00937682434E-04  5.10867313293E-04  5.20966677333E-04
  5.31238675907E-04  5.41686259960E-04  5.52312430882E-04  5.63120241367E-04
  5.74112796287E-04  5.85293253593E-04  5.96664825213E-04  6.08230777979E-04
  6.19994434567E-04  6.31959174446E-04  6.44128434855E-04  6.56505711788E-04
  6.69094560995E-04  6.81898599011E-04  6.94921504187E-04  7.08167017752E-04
  7.21638944886E-04  7.35341155813E-04  7.49277586912E-04  7.63452241851E-04
  7.77869192734E-04  7.92532581272E-04  8.07446619973E-04  8.22615593351E-04
  8.38043859158E-04  8.53735849638E-04  8.69696072795E-04  8.85929113693E-04
  9.02439635770E-04  9.19232382179E-04  9.36312177152E-04  9.53683927384E-04
  9.71352623441E-04  9.89323341199E-04  1.00760124330E-03  1.02619158062E-03
  1.04509969382E-03  1.06433101482E-03  1.08389106842E-03  1.10378547383E-03
  1.12401994634E-03  1.14460029892E-03  1.16553244390E-03  1.18682239469E-03
  1.20847626748E-03  1.23050028300E-03  1.25290076832E-03  1.27568415869E-03
  1.29885699931E-03  1.32242594730E-03  1.34639777357E-03  1.37077936475E-03
  1.39557772521E-03  1.42079997902E-03  1.44645337207E-03  1.47254527407E-03
  1.49908318072E-03  1.52607471585E-03  1.55352763359E-03  1.58144982066E-03
  1.60984929854E-03  1.63873422587E-03  1.66811290071E-03  1.69799376300E-03
  1.72838539693E-03  1.75929653343E-03  1.79073605266E-03  1.82271298660E-03
  1.85523652159E-03  1.88831600103E-03  1.92196092800E-03  1.95618096804E-03
  1.99098595191E-03  2.02638587841E-03  2.06239091724E-03  2.09901141196E-03
  2.13625788293E-03  2.17414103034E-03  2.21267173729E-03  2.25186107290E-03
  2.29172029550E-03  2.33226085589E-03  2.37349440058E-03  2.41543277517E-03
  2.45808802774E-03  2.50147241233E-03  2.54559839242E-03  2.59047864456E-03
  2.63612606198E-03  2.68255375829E-03  2.72977507127E-03  2.77780356669E-03
  2.82665304222E-03  2.87633753135E-03  2.92687130749E-03  2.97826888800E-03
  3.03054503842E-03  3.08371477668E-03  3.13779337740E-03  3.19279637634E-03
  3.24873957477E-03  3.30563904411E-03  3.36351113047E-03  3.42237245938E-03
  3.48223994055E-03  3.54313077277E-03  3.60506244878E-03  3.66805276036E-03
  3.73211980341E-03  3.79728198314E-03  3.86355801940E-03  3.93096695200E-03
  3.99952814623E-03  4.06926129838E-03  4.14018644146E-03  4.21232395086E-03
  4.28569455032E-03  4.36031931778E-03  4.43621969149E-03  4.51341747616E-03
  4.59193484922E-03  4.67179436719E-03  4.75301897217E-03  4.83563199842E-03
  4.91965717905E-03  5.00511865288E-03  5.09204097133E-03  5.18044910551E-03
  5.27036845335E-03  5.36182484696E-03  5.45484455998E-03  5.54945431517E-03
  5.64568129208E-03  5.74355313487E-03  5.84309796023E-03  5.94434436544E-03
  6.04732143666E-03  6.15205875719E-03  6.25858641604E-03  6.36693501654E-03
  6.47713568516E-03  6.58922008041E-03  6.70322040198E-03  6.81916939994E-03
  6.93710038420E-03  7.05704723405E-03  7.17904440789E-03  7.30312695317E-03
  7.42933051638E-03  7.55769135338E-03  7.68824633974E-03  7.82103298139E-03
  7.95608942536E-03  8.09345447075E-03  8.23316757989E-03  8.37526888964E-03
  8.51979922296E-03  8.66680010062E-03  8.81631375313E-03  8.96838313287E-03
  9.12305192642E-03  9.28036456714E-03  9.44036624791E-03  9.60310293410E-03
  9.76862137684E-03  9.93696912635E-03  1.01081945457E-02  1.02823468246E-02
  1.04594759937E-02  1.06396329387E-02  1.08228694153E-02  1.10092380637E-02
  1.11987924240E-02  1.13915869516E-02  1.15876770326E-02  1.17871189998E-02
  1.19899701492E-02  1.21962887558E-02  1.24061340911E-02  1.26195664395E-02
  1.28366471160E-02  1.30574384837E-02  1.32820039718E-02  1.35104080934E-02
  1.37427164648E-02  1.39789958235E-02  1.42193140481E-02  1.44637401774E-02
  1.47123444302E-02  1.49651982258E-02  1.52223742041E-02  1.54839462469E-02
  1.57499894987E-02  1.60205803886E-02  1.62957966521E-02  1.65757173535E-02
  1.68604229086E-02  1.71499951079E-02  1.74445171398E-02  1.77440736148E-02
  1.80487505897E-02  1.83586355922E-02  1.86738176464E-02  1.89943872979E-02
  1.93204366403E-02  1.96520593410E-02  1.99893506691E-02  2.03324075217E-02
  2.06813284524E-02  2.10362136994E-02  2.13971652145E-02  2.17642866919E-02
  2.21376835987E-02  2.25174632044E-02  2.29037346125E-02  2.32966087913E-02
  2.36961986058E-02  2.41026188505E-02  2.45159862821E-02  2.49364196530E-02
  2.53640397457E-02  2.57989694071E-02  2.62413335840E-02  2.66912593591E-02
  2.71488759875E-02  2.76143149334E-02  2.80877099086E-02  2.85691969102E-02
  2.90589142601E-02  2.95570026447E-02  3.00636051550E-02  3.05788673282E-02
  3.11029371892E-02  3.16359652931E-02  3.21781047685E-02  3.27295113616E-02
  3.32903434809E-02  3.38607622425E-02  3.44409315168E-02  3.50310179752E-02
  3.56311911380E-02  3.62416234234E-02  3.68624901968E-02  3.74939698212E-02
  3.81362437085E-02  3.87894963715E-02  3.94539154772E-02  4.01296919001E-02
  4.08170197779E-02  4.15160965665E-02  4.22271230972E-02  4.29503036341E-02
  4.36858459330E-02  4.44339613009E-02  4.51948646570E-02  4.59687745941E-02
  4.67559134414E-02  4.75565073288E-02  4.83707862513E-02  4.91989841357E-02
  5.00413389070E-02  5.08980925575E-02  5.17694912160E-02  5.26557852185E-02
  5.35572291799E-02  5.44740820679E-02  5.54066072763E-02  5.63550727018E-02
  5.73197508200E-02  5.83009187644E-02  5.92988584054E-02  6.03138564318E-02
  6.13462044330E-02  6.23961989825E-02  6.34641417234E-02  6.45503394550E-02
  6.56551042210E-02  6.67787533988E-02  6.79216097911E-02  6.90840017184E-02
  7.02662631135E-02  7.14687336172E-02  7.26917586759E-02  7.39356896412E-02
  7.52008838703E-02  7.64877048289E-02  7.77965221960E-02  7.91277119694E-02
  8.04816565741E-02  8.18587449722E-02  8.32593727746E-02  8.46839423546E-02
  8.61328629634E-02  8.76065508478E-02  8.91054293700E-02  9.06299291286E-02
  9.21804880830E-02  9.37575516787E-02  9.53615729756E-02  9.69930127780E-02
  9.86523397670E-02  1.00340030635E-01  1.02056570223E-01  1.03802451660E-01
  1.05578176503E-01  1.07384254884E-01  1.09221205655E-01  1.11089556535E-01
  1.12989844267E-01  1.14922614765E-01  1.16888423277E-01  1.18887834542E-01
  1.20921422952E-01  1.22989772718E-01  1.25093478037E-01  1.27233143262E-01
  1.29409383078E-01  1.31622822677E-01  1.33874097936E-01  1.36163855604E-01
  1.38492753484E-01  1.40861460622E-01  1.43270657504E-01  1.45721036244E-01
  1.48213300788E-01  1.50748167117E-01  1.53326363448E-01  1.55948630447E-01
  1.58615721441E-01  1.61328402633E-01  1.64087453324E-01  1.66893666136E-01
  1.69747847240E-01  1.72650816587E-01  1.75603408143E-01  1.78606470131E-01
  1.81660865272E-01  1.84767471036E-01  1.87927179890E-01  1.91140899557E-01
  1.94409553276E-01  1.97734080069E-01  2.01115435008E-01  2.04554589490E-01
  2.08052531518E-01  2.11610265984E-01  2.15228814955E-01  2.18909217971E-01
  2.22652532340E-01  2.26459833443E-01  2.30332215046E-01  2.34270789608E-01
  2.38276688605E-01  2.42351062855E-01  2.46495082846E-01  2.50709939076E-01
  2.54996842390E-01  2.59357024334E-01  2.63791737503E-01  2.68302255905E-01
  2.72889875324E-01  2.77555913694E-01  2.82301711478E-01  2.87128632052E-01
  2.92038062096E-01  2.97031411996E-01  3.02110116243E-01  3.07275633852E-01
  3.12529448775E-01  3.17873070332E-01  3.23308033641E-01  3.28835900064E-01
  3.34458257648E-01  3.40176721588E-01  3.45992934688E-01  3.51908567835E-01
  3.57925320474E-01  3.64044921102E-01  3.70269127763E-01  3.76599728549E-01
  3.83038542122E-01  3.89587418226E-01  3.96248238227E-01  4.03022915650E-01
  4.09913396730E-01  4.16921660966E-01  4.24049721699E-01  4.31299626682E-01
  4.38673458673E-01  4.46173336031E-01  4.53801413325E-01  4.61559881955E-01
  4.69450970778E-01  4.77476946751E-01  4.85640115583E-01  4.93942822393E-01
  5.02387452389E-01  5.10976431549E-01  5.19712227321E-01  5.28597349330E-01
  5.37634350100E-01  5.46825825785E-01  5.56174416920E-01  5.65682809173E-01
  5.75353734121E-01  5.85189970035E-01  5.95194342674E-01  6.05369726101E-01
  6.15719043507E-01  6.26245268050E-01  6.36951423711E-01  6.47840586162E-01
  6.58915883647E-01  6.70180497887E-01  6.81637664985E-01  6.93290676366E-01
  7.05142879713E-01  7.17197679935E-01  7.29458540143E-01  7.41928982644E-01
  7.54612589957E-01  7.67513005835E-01  7.80633936318E-01  7.93979150797E-01
  8.07552483092E-01  8.21357832559E-01  8.35399165209E-01  8.49680514844E-01
  8.64205984220E-01  8.78979746223E-01  8.94006045069E-01  9.09289197523E-01
  9.24833594138E-01  9.40643700520E-01  9.56724058606E-01  9.73079287971E-01
  9.89714087156E-01  1.00663323502E+00  1.02384159210E+00  1.04134410203E+00
  1.05914579294E+00  1.07725177891E+00  1.09566726145E+00  1.11439753095E+00
  1.13344796828E+00  1.15282404624E+00  1.17253133121E+00  1.19257548472E+00
  1.21296226506E+00  1.23369752895E+00  1.25478723324E+00  1.27623743660E+00
  1.29805430124E+00  1.32024409474E+00  1.34281319179E+00  1.36576807606E+00
  1.38911534203E+00  1.41286169694E+00  1.43701396264E+00  1.46157907761E+00
  1.48656409895E+00  1.51197620435E+00  1.53782269423E+00  1.56411099378E+00
  1.59084865512E+00  1.61804335947E+00  1.64570291934E+00  1.67383528078E+00
  1.70244852568E+00  1.73155087407E+00  1.76115068648E+00  1.79125646638E+00
  1.82187686257E+00  1.85302067170E+00  1.88469684079E+00  1.91691446977E+00
  1.94968281416E+00  1.98301128767E+00  2.01690946491E+00  2.05138708419E+00
  2.08645405025E+00  2.12212043715E+00  2.15839649117E+00  2.19529263370E+00
  2.23281946429E+00  2.27098776368E+00  2.30980849688E+00  2.34929281633E+00
  2.38945206512E+00  2.43029778022E+00  2.47184169582E+00  2.51409574668E+00
  2.55707207156E+00  2.60078301674E+00  2.64524113952E+00  2.69045921187E+00
  2.73645022405E+00  2.78322738841E+00  2.83080414310E+00  2.87919415602E+00
  2.92841132868E+00  2.97846980021E+00  3.02938395145E+00  3.08116840905E+00
  3.13383804968E+00  3.18740800432E+00  3.24189366256E+00  3.29731067709E+00
  3.35367496815E+00  3.41100272809E+00  3.46931042609E+00  3.52861481281E+00
  3.58893292525E+00  3.65028209164E+00  3.71267993642E+00  3.77614438526E+00
  3.84069367029E+00  3.90634633526E+00  3.97312124091E+00  4.04103757038E+00
  4.11011483472E+00  4.18037287849E+00  4.25183188546E+00  4.32451238443E+00
  4.39843525510E+00  4.47362173407E+00  4.55009342096E+00  4.62787228462E+00
  4.70698066941E+00  4.78744130163E+00  4.86927729606E+00  4.95251216261E+00
  5.03716981303E+00  5.12327456784E+00  5.21085116327E+00  5.29992475837E+00
  5.39052094227E+00  5.48266574149E+00  5.57638562746E+00  5.67170752409E+00
  5.76865881550E+00  5.86726735393E+00  5.96756146771E+00  6.06956996939E+00
  6.17332216404E+00  6.27884785767E+00  6.38617736575E+00  6.49534152198E+00
  6.60637168711E+00  6.71929975796E+00  6.83415817658E+00  6.95097993956E+00
  7.06979860755E+00  7.19064831484E+00  7.31356377921E+00  7.43858031191E+00
  7.56573382776E+00  7.69506085550E+00  7.82659854830E+00  7.96038469437E+00
  8.09645772790E+00  8.23485674004E+00  8.37562149013E+00  8.51879241717E+00
  8.66441065140E+00  8.81251802612E+00  8.96315708971E+00  9.11637111785E+00
  9.27220412598E+00  9.43070088190E+00  9.59190691866E+00  9.75586854764E+00
  9.92263287184E+00  1.00922477994E+01  1.02647620575E+01  1.04402252060E+01
  1.06186876522E+01  1.08002006648E+01  1.09848163891E+01  1.11725878615E+01
  1.13635690252E+01  1.15578147453E+01  1.17553808249E+01  1.19563240210E+01
  1.21607020605E+01  1.23685736574E+01  1.25799985291E+01  1.27950374139E+01
  1.30137520884E+01  1.32362053850E+01  1.34624612102E+01  1.36925845630E+01
  1.39266415534E+01  1.41646994213E+01  1.44068265563E+01  1.46530925167E+01
  1.49035680500E+01  1.51583251130E+01  1.54174368924E+01  1.56809778261E+01
  1.59490236243E+01  1.62216512913E+01  1.64989391477E+01  1.67809668531E+01
  1.70678154285E+01  1.73595672800E+01  1.76563062222E+01  1.79581175025E+01
  1.82650878254E+01  1.85773053776E+01  1.88948598531E+01  1.92178424791E+01
  1.95463460424E+01  1.98804649157E+01  2.02202950848E+01  2.05659341763E+01
  2.09174814858E+01  2.12750380059E+01  2.16387064556E+01  2.20085913100E+01
  2.23847988298E+01  2.27674370921E+01  2.31566160214E+01  2.35524474214E+01
  2.39550450068E+01  2.43645244360E+01  2.47810033445E+01  2.52046013788E+01
  2.56354402303E+01  2.60736436707E+01  2.65193375873E+01  2.69726500194E+01
  2.74337111949E+01  2.79026535677E+01  2.83796118559E+01  2.88647230804E+01
  2.93581266043E+01  2.98599641728E+01  3.03703799541E+01  3.08895205809E+01
  3.14175351922E+01  3.19545754764E+01  3.25007957147E+01  3.30563528257E+01
  3.36214064102E+01  3.41961187971E+01  3.47806550902E+01  3.53751832154E+01
  3.59798739691E+01  3.65949010674E+01  3.72204411957E+01  3.78566740593E+01
  3.85037824359E+01  3.91619522270E+01  3.98313725122E+01  4.05122356029E+01
  4.12047370979E+01  4.19090759395E+01  4.26254544706E+01  4.33540784929E+01
  4.40951573260E+01  4.48489038675E+01  4.56155346542E+01  4.63952699243E+01
  4.71883336805E+01  4.79949537549E+01  4.88153618738E+01  4.96497937244E+01
  5.04984890230E+01  5.13616915833E+01  5.22396493866E+01  5.31326146533E+01
  5.40408439150E+01  5.49645980884E+01  5.59041425502E+01  5.68597472133E+01
  5.78316866045E+01  5.88202399431E+01  5.98256912214E+01  6.08483292861E+01
  6.18884479213E+01  6.29463459330E+01  6.40223272347E+01  6.51167009352E+01
  6.62297814267E+01  6.73618884758E+01  6.85133473149E+01  6.96844887359E+01
  7.08756491850E+01  7.20871708596E+01  7.33194018065E+01  7.45726960216E+01
  7.58474135522E+01  7.71439206000E+01  7.84625896264E+01  7.98037994594E+01
  8.11679354027E+01  8.25553893461E+01  8.39665598783E+01  8.54018524014E+01
  8.68616792470E+01  8.83464597952E+01  8.98566205947E+01  9.13925954854E+01
  9.29548257233E+01  9.45437601068E+01  9.61598551061E+01  9.78035749940E+01
  9.94753919793E+01  1.01175786343E+02  1.02905246575E+02  1.04664269516E+02
  1.06453360499E+02  1.08273033496E+02  1.10123811263E+02  1.12006225493E+02
  1.13920816967E+02  1.15868135711E+02  1.17848741150E+02  1.19863202276E+02
  1.21912097803E+02  1.23996016339E+02  1.26115556555E+02  1.28271327352E+02
  1.30463948043E+02  1.32694048524E+02  1.34962269461E+02  1.37269262469E+02
  1.39615690303E+02  1.42002227046E+02  1.44429558304E+02  1.46898381402E+02
  1.49409405586E+02  1.51963352223E+02  1.54560955014E+02  1.57202960200E+02
  1.59890126776E+02  1.62623226716E+02  1.65403045184E+02  1.68230380769E+02
  1.71106045711E+02  1.74030866131E+02  1.77005682275E+02  1.80031348748E+02
  1.83108734768E+02  1.86238724406E+02  1.89422216850E+02  1.92660126653E+02
  1.95953384006E+02  1.99302934997E+02  2.02709741888E+02
  </PP_R>
  <PP_RAB>
  1.35524995991E-06  1.37841606656E-06  1.40197816549E-06  1.42594302561E-06
  1.45031753156E-06  1.47510868568E-06  1.50032360998E-06  1.52596954822E-06
  1.55205386799E-06  1.57858406279E-06  1.60556775425E-06  1.63301269426E-06
  1.66092676721E-06  1.68931799229E-06  1.71819452573E-06  1.74756466321E-06
  1.77743684220E-06  1.80781964441E-06  1.83872179821E-06  1.87015218120E-06
  1.90211982273E-06  1.93463390648E-06  1.96770377311E-06  2.00133892295E-06
  2.03554901875E-06  2.07034388838E-06  2.10573352775E-06  2.14172810362E-06
  2.17833795653E-06  2.21557360378E-06  2.25344574245E-06  2.29196525248E-06
  2.33114319977E-06  2.37099083939E-06  2.41151961881E-06  2.45274118114E-06
  2.49466736855E-06  2.53731022563E-06  2.58068200283E-06  2.62479516003E-06
  2.66966237009E-06  2.71529652249E-06  2.76171072704E-06  2.80891831764E-06
  2.85693285612E-06  2.90576813612E-06  2.95543818707E-06  3.00595727823E-06
  3.05733992275E-06  3.10960088186E-06  3.16275516914E-06  3.21681805477E-06
  3.27180506998E-06  3.32773201148E-06  3.38461494599E-06  3.44247021487E-06
  3.50131443884E-06  3.56116452269E-06  3.62203766019E-06  3.68395133903E-06
  3.74692334580E-06  3.81097177114E-06  3.87611501492E-06  3.94237179154E-06
  4.00976113529E-06  4.07830240582E-06  4.14801529372E-06  4.21891982614E-06
  4.29103637258E-06  4.36438565074E-06  4.43898873245E-06  4.51486704971E-06
  4.59204240092E-06  4.67053695705E-06  4.75037326806E-06  4.83157426939E-06
  4.91416328852E-06  4.99816405166E-06  5.08360069062E-06  5.17049774969E-06
  5.25888019270E-06  5.34877341023E-06  5.44020322686E-06  5.53319590860E-06
  5.62777817045E-06  5.72397718407E-06  5.82182058557E-06  5.92133648347E-06
  6.02255346676E-06  6.12550061312E-06  6.23020749727E-06  6.33670419947E-06
  6.44502131417E-06  6.55518995878E-06  6.66724178261E-06  6.78120897599E-06
  6.89712427949E-06  7.01502099332E-06  7.13493298695E-06  7.25689470875E-06
  7.38094119598E-06  7.50710808478E-06  7.63543162047E-06  7.76594866791E-06
  7.89869672212E-06  8.03371391906E-06  8.17103904654E-06  8.31071155543E-06
  8.45277157093E-06  8.59725990413E-06  8.74421806374E-06  8.89368826799E-06
  9.04571345678E-06  9.20033730400E-06  9.35760423010E-06  9.51755941481E-06
  9.68024881018E-06  9.84571915370E-06  1.00140179818E-05  1.01851936435E-05
  1.03592953143E-05  1.05363730101E-05  1.07164776020E-05  1.08996608305E-05
  1.10859753207E-05  1.12754745971E-05  1.14682130991E-05  1.16642461968E-05
  1.18636302068E-05  1.20664224081E-05  1.22726810591E-05  1.24824654139E-05
  1.26958357395E-05  1.29128533330E-05  1.31335805393E-05  1.33580807693E-05
  1.35864185173E-05  1.38186593805E-05  1.40548700771E-05  1.42951184659E-05
  1.45394735656E-05  1.47880055747E-05  1.50407858916E-05  1.52978871353E-05
  1.55593831660E-05  1.58253491063E-05  1.60958613632E-05  1.63709976496E-05
  1.66508370068E-05  1.69354598273E-05  1.72249478777E-05  1.75193843223E-05
  1.78188537470E-05  1.81234421836E-05  1.84332371344E-05  1.87483275976E-05
  1.90688040924E-05  1.93947586857E-05  1.97262850178E-05  2.00634783299E-05
  2.04064354911E-05  2.07552550264E-05  2.11100371447E-05  2.14708837683E-05
  2.18378985612E-05  2.22111869598E-05  2.25908562027E-05  2.29770153614E-05
  2.33697753719E-05  2.37692490667E-05  2.41755512069E-05  2.45887985150E-05
  2.50091097092E-05  2.54366055366E-05  2.58714088086E-05  2.63136444357E-05
  2.67634394636E-05  2.72209231098E-05  2.76862268005E-05  2.81594842084E-05
  2.86408312912E-05  2.91304063305E-05  2.96283499720E-05  3.01348052650E-05
  3.06499177045E-05  3.11738352722E-05  3.17067084796E-05  3.22486904107E-05
  3.27999367666E-05  3.33606059095E-05  3.39308589091E-05  3.45108595877E-05
  3.51007745686E-05  3.57007733227E-05  3.63110282182E-05  3.69317145694E-05
  3.75630106876E-05  3.82050979318E-05  3.88581607614E-05  3.95223867886E-05
  4.01979668328E-05  4.08850949750E-05  4.15839686138E-05  4.22947885221E-05
  4.30177589047E-05  4.37530874570E-05  4.45009854247E-05  4.52616676644E-05
  4.60353527053E-05  4.68222628122E-05  4.76226240492E-05  4.84366663445E-05
  4.92646235568E-05  5.01067335422E-05  5.09632382224E-05  5.18343836549E-05
  5.27204201027E-05  5.36216021070E-05  5.45381885600E-05  5.54704427792E-05
  5.64186325832E-05  5.73830303686E-05  5.83639131882E-05  5.93615628307E-05
  6.03762659015E-05  6.14083139051E-05  6.24580033290E-05  6.35256357287E-05
  6.46115178143E-05  6.57159615386E-05  6.68392841870E-05  6.79818084684E-05
  6.91438626078E-05  7.03257804410E-05  7.15279015100E-05  7.27505711610E-05
  7.39941406433E-05  7.52589672104E-05  7.65454142224E-05  7.78538512507E-05
  7.91846541840E-05  8.05382053361E-05  8.19148935561E-05  8.33151143399E-05
  8.47392699438E-05  8.61877695002E-05  8.76610291350E-05  8.91594720872E-05
  9.06835288303E-05  9.22336371965E-05  9.38102425019E-05  9.54137976746E-05
  9.70447633850E-05  9.87036081781E-05  1.00390808608E-04  1.02106849374E-04
  1.03852223463E-04  1.05627432285E-04  1.07432985825E-04  1.09269402783E-04
  1.11137210725E-04  1.13036946238E-04  1.14969155078E-04  1.16934392332E-04
  1.18933222573E-04  1.20966220028E-04  1.23033968738E-04  1.25137062725E-04
  1.27276106170E-04  1.29451713576E-04  1.31664509956E-04  1.33915131000E-04
  1.36204223271E-04  1.38532444379E-04  1.40900463178E-04  1.43308959954E-04
  1.45758626620E-04  1.48250166920E-04  1.50784296623E-04  1.53361743737E-04
  1.55983248713E-04  1.58649564657E-04  1.61361457552E-04  1.64119706470E-04
  1.66925103805E-04  1.69778455491E-04  1.72680581243E-04  1.75632314784E-04
  1.78634504090E-04  1.81688011633E-04  1.84793714625E-04  1.87952505276E-04
  1.91165291045E-04  1.94432994902E-04  1.97756555597E-04  2.01136927923E-04
  2.04575082997E-04  2.08072008533E-04  2.11628709130E-04  2.15246206561E-04
  2.18925540062E-04  2.22667766634E-04  2.26473961346E-04  2.30345217645E-04
  2.34282647668E-04  2.38287382562E-04  2.42360572810E-04  2.46503388560E-04
  2.50717019964E-04  2.55002677516E-04  2.59361592403E-04  2.63795016857E-04
  2.68304224514E-04  2.72890510783E-04  2.77555193215E-04  2.82299611883E-04
  2.87125129767E-04  2.92033133145E-04  2.97025031991E-04  3.02102260380E-04
  3.07266276904E-04  3.12518565082E-04  3.17860633797E-04  3.23294017721E-04
  3.28820277761E-04  3.34441001503E-04  3.40157803673E-04  3.45972326598E-04
  3.51886240678E-04  3.57901244865E-04  3.64019067154E-04  3.70241465077E-04
  3.76570226209E-04  3.83007168679E-04  3.89554141698E-04  3.96213026083E-04
  4.02985734804E-04  4.09874213528E-04  4.16880441182E-04  4.24006430520E-04
  4.31254228701E-04  4.38625917876E-04  4.46123615790E-04  4.53749476386E-04
  4.61505690426E-04  4.69394486120E-04  4.77418129767E-04  4.85578926404E-04
  4.93879220470E-04  5.02321396480E-04  5.10907879706E-04  5.19641136879E-04
  5.28523676896E-04  5.37558051538E-04  5.46746856206E-04  5.56092730665E-04
  5.65598359805E-04  5.75266474409E-04  5.85099851940E-04  5.95101317335E-04
  6.05273743824E-04  6.15620053746E-04  6.26143219397E-04  6.36846263879E-04
  6.47732261969E-04  6.58804341003E-04  6.70065681776E-04  6.81519519453E-04
  6.93169144501E-04  7.05017903630E-04  7.17069200760E-04  7.29326497995E-04
  7.41793316620E-04  7.54473238111E-04  7.67369905164E-04  7.80487022740E-04
  7.93828359136E-04  8.07397747058E-04  8.21199084728E-04  8.35236337005E-04
  8.49513536519E-04  8.64034784833E-04  8.78804253621E-04  8.93826185866E-04
  9.09104897077E-04  9.24644776534E-04  9.40450288542E-04  9.56525973719E-04
  9.72876450299E-04  9.89506415458E-04  1.00642064666E-03  1.02362400304E-03
  1.04112142679E-03  1.05891794458E-03  1.07701866900E-03  1.09542880005E-03
  1.11415362659E-03  1.13319852791E-03  1.15256897523E-03  1.17227053332E-03
  1.19230886205E-03  1.21268971805E-03  1.23341895633E-03  1.25450253201E-03
  1.27594650200E-03  1.29775702672E-03  1.31994037193E-03  1.34250291046E-03
  1.36545112410E-03  1.38879160542E-03  1.41253105970E-03  1.43667630682E-03
  1.46123428324E-03  1.48621204399E-03  1.51161676471E-03  1.53745574366E-03
  1.56373640391E-03  1.59046629536E-03  1.61765309700E-03  1.64530461908E-03
  1.67342880533E-03  1.70203373530E-03  1.73112762662E-03  1.76071883742E-03
  1.79081586866E-03  1.82142736665E-03  1.85256212547E-03  1.88422908954E-03
  1.91643735617E-03  1.94919617817E-03  1.98251496651E-03  2.01640329304E-03
  2.05087089322E-03  2.08592766891E-03  2.12158369126E-03  2.15784920355E-03
  2.19473462417E-03  2.23225054956E-03  2.27040775735E-03  2.30921720935E-03
  2.34869005477E-03  2.38883763339E-03  2.42967147884E-03  2.47120332189E-03
  2.51344509383E-03  2.55640892991E-03  2.60010717281E-03  2.64455237618E-03
  2.68975730828E-03  2.73573495561E-03  2.78249852664E-03  2.83006145566E-03
  2.87843740658E-03  2.92764027685E-03  2.97768420153E-03  3.02858355726E-03
  3.08035296644E-03  3.13300730142E-03  3.18656168877E-03  3.24103151363E-03
  3.29643242413E-03  3.35278033587E-03  3.41009143653E-03  3.46838219047E-03
  3.52766934349E-03  3.58796992766E-03  3.64930126615E-03  3.71168097828E-03
  3.77512698453E-03  3.83965751171E-03  3.90529109820E-03  3.97204659924E-03
  4.03994319242E-03  4.10900038309E-03  4.17923801006E-03  4.25067625124E-03
  4.32333562946E-03  4.39723701834E-03  4.47240164832E-03  4.54885111276E-03
  4.62660737409E-03  4.70569277020E-03  4.78613002077E-03  4.86794223389E-03
  4.95115291261E-03  5.03578596176E-03  5.12186569476E-03  5.20941684067E-03
  5.29846455123E-03  5.38903440812E-03  5.48115243032E-03  5.57484508154E-03
  5.67013927788E-03  5.76706239552E-03  5.86564227858E-03  5.96590724716E-03
  6.06788610545E-03  6.17160815000E-03  6.27710317814E-03  6.38440149656E-03
  6.49353392999E-03  6.60453183006E-03  6.71742708432E-03  6.83225212539E-03
  6.94903994029E-03  7.06782407990E-03  7.18863866859E-03  7.31151841407E-03
  7.43649861730E-03  7.56361518269E-03  7.69290462835E-03  7.82440409665E-03
  7.95815136484E-03  8.09418485592E-03  8.23254364967E-03  8.37326749392E-03
  8.51639681588E-03  8.66197273385E-03  8.81003706897E-03  8.96063235725E-03
  9.11380186182E-03  9.26958958530E-03  9.42804028250E-03  9.58919947323E-03
  9.75311345540E-03  9.91982931835E-03  1.00893949563E-02  1.02618590822E-02
  1.04372712416E-02  1.06156818271E-02  1.07971420925E-02  1.09817041680E-02
  1.11694210745E-02  1.13603467396E-02  1.15545360124E-02  1.17520446799E-02
  1.19529294824E-02  1.21572481302E-02  1.23650593202E-02  1.25764227524E-02
  1.27913991475E-02  1.30100502641E-02  1.32324389164E-02  1.34586289923E-02
  1.36886854719E-02  1.39226744459E-02  1.41606631349E-02  1.44027199083E-02
  1.46489143045E-02  1.48993170504E-02  1.51540000816E-02  1.54130365639E-02
  1.56765009133E-02  1.59444688181E-02  1.62170172602E-02  1.64942245376E-02
  1.67761702865E-02  1.70629355045E-02  1.73546025737E-02  1.76512552844E-02
  1.79529788591E-02  1.82598599773E-02  1.85719867999E-02  1.88894489949E-02
  1.92123377631E-02  1.95407458642E-02  1.98747676434E-02  2.02144990588E-02
  2.05600377086E-02  2.09114828593E-02  2.12689354744E-02  2.16324982432E-02
  2.20022756100E-02  2.23783738049E-02  2.27609008735E-02  2.31499667086E-02
  2.35456830810E-02  2.39481636726E-02  2.43575241082E-02  2.47738819892E-02
  2.51973569270E-02  2.56280705779E-02  2.60661466775E-02  2.65117110767E-02
  2.69648917775E-02  2.74258189698E-02  2.78946250693E-02  2.83714447547E-02
  2.88564150072E-02  2.93496751494E-02  2.98513668853E-02  3.03616343412E-02
  3.08806241071E-02  3.14084852788E-02  3.19453695006E-02  3.24914310088E-02
  3.30468266764E-02  3.36117160578E-02  3.41862614349E-02  3.47706278633E-02
  3.53649832203E-02  3.59694982526E-02  3.65843466257E-02  3.72097049736E-02
  3.78457529498E-02  3.84926732784E-02  3.91506518072E-02  3.98198775607E-02