<PP_INFO>
Generated using Vanderbilt code, version   7  3  6                              
Author: kfg        Generation date:   22    9   15                              
Automatically converted from original format                                    
    0        The Pseudo was generated with a Non-Relativistic Calculation
  1.00000000000E+00    Local Potential cutoff radius
nl pn  l   occ               Rcut            Rcut US             E pseu
1S  1  0  1.00      0.00000000000      1.20000000000     -0.46537999600
</PP_INFO>


<PP_HEADER>
   0                   Version Number
  H                    Element
   US                  Ultrasoft pseudopotential
    F                  Nonlinear Core Correction
SLA  PW   PSX  PSC     PBEsol  Exchange-Correlation functional
    1.00000000000      Z valence
   -0.89968178757      Total energy
    0.00000    0.00000 Suggested cutoff for wfc and rho
    0                  Max angular momentum component
  615                  Number of points in mesh
    1    2             Number of Wavefunctions, Number of Projectors
 Wavefunctions         nl  l   occ
                       1S  0  1.00
</PP_HEADER>


<PP_MESH>
  <PP_R>
  0.00000000000E+00  4.23708090800E-05  8.54658880079E-05  1.29297617166E-04
  1.73878588562E-04  2.19221609446E-04  2.65339705991E-04  3.12246127033E-04
  3.59954347880E-04  4.08478074179E-04  4.57831245860E-04  5.08028041132E-04
  5.59082880565E-04  6.11010431224E-04  6.63825610891E-04  7.17543592346E-04
  7.72179807723E-04  8.27749952951E-04  8.84269992258E-04  9.41756162756E-04
  1.00022497911E-03  1.05969323828E-03  1.12017802435E-03  1.18169671342E-03
  1.24426697862E-03  1.30790679519E-03  1.37263444560E-03  1.43846852486E-03
  1.50542794582E-03  1.57353194464E-03  1.64280008627E-03  1.71325227011E-03
  1.78490873571E-03  1.85779006859E-03  1.93191720613E-03  2.00731144364E-03
  2.08399444042E-03  2.16198822601E-03  2.24131520651E-03  2.32199817104E-03
  2.40406029824E-03  2.48752516298E-03  2.57241674309E-03  2.65875942630E-03
  2.74657801717E-03  2.83589774429E-03  2.92674426749E-03  3.01914368522E-03
  3.11312254204E-03  3.20870783626E-03  3.30592702769E-03  3.40480804551E-03
  3.50537929633E-03  3.60766967233E-03  3.71170855954E-03  3.81752584634E-03
  3.92515193197E-03  4.03461773533E-03  4.14595470383E-03  4.25919482242E-03
  4.37437062280E-03  4.49151519274E-03  4.61066218562E-03  4.73184583006E-03
  4.85510093978E-03  4.98046292358E-03  5.10796779554E-03  5.23765218533E-03
  5.36955334878E-03  5.50370917854E-03  5.64015821498E-03  5.77893965726E-03
  5.92009337461E-03  6.06365991777E-03  6.20968053062E-03  6.35819716206E-03
  6.50925247803E-03  6.66288987383E-03  6.81915348648E-03  6.97808820751E-03
  7.13973969578E-03  7.30415439064E-03  7.47137952525E-03  7.64146314016E-03
  7.81445409709E-03  7.99040209300E-03  8.16935767435E-03  8.35137225160E-03
  8.53649811404E-03  8.72478844472E-03  8.91629733583E-03  9.11107980416E-03
  9.30919180695E-03  9.51069025794E-03  9.71563304373E-03  9.92407904042E-03
  1.01360881305E-02  1.03517212201E-02  1.05710402565E-02  1.07941082456E-02
  1.10209892708E-02  1.12517485104E-02  1.14864522572E-02  1.17251679369E-02
  1.19679641281E-02  1.22149105813E-02  1.24660782395E-02  1.27215392582E-02
  1.29813670266E-02  1.32456361880E-02  1.35144226619E-02  1.37878036655E-02
  1.40658577358E-02  1.43486647524E-02  1.46363059602E-02  1.49288639930E-02
  1.52264228971E-02  1.55290681554E-02  1.58368867121E-02  1.61499669973E-02
  1.64683989531E-02  1.67922740588E-02  1.71216853574E-02  1.74567274824E-02
  1.77974966849E-02  1.81440908614E-02  1.84966095816E-02  1.88551541174E-02
  1.92198274716E-02  1.95907344078E-02  1.99679814805E-02  2.03516770654E-02
  2.07419313909E-02  2.11388565693E-02  2.15425666298E-02  2.19531775503E-02
  2.23708072915E-02  2.27955758302E-02  2.32276051943E-02  2.36670194974E-02
  2.41139449748E-02  2.45685100194E-02  2.50308452192E-02  2.55010833939E-02
  2.59793596339E-02  2.64658113388E-02  2.69605782567E-02  2.74638025245E-02
  2.79756287089E-02  2.84962038476E-02  2.90256774917E-02  2.95642017489E-02
  3.01119313267E-02  3.06690235772E-02  3.12356385422E-02  3.18119389993E-02
  3.23980905084E-02  3.29942614595E-02  3.36006231210E-02  3.42173496888E-02
  3.48446183366E-02  3.54826092665E-02  3.61315057610E-02  3.67914942355E-02
  3.74627642918E-02  3.81455087729E-02  3.88399238181E-02  3.95462089193E-02
  4.02645669786E-02  4.09952043664E-02  4.17383309807E-02  4.24941603073E-02
  4.32629094814E-02  4.40447993498E-02  4.48400545342E-02  4.56489034962E-02
  4.64715786023E-02  4.73083161912E-02  4.81593566414E-02  4.90249444405E-02
  4.99053282549E-02  5.08007610019E-02  5.17114999221E-02  5.26378066531E-02
  5.35799473048E-02  5.45381925362E-02  5.55128176324E-02  5.65041025845E-02
  5.75123321694E-02  5.85377960319E-02  5.95807887680E-02  6.06416100093E-02
  6.17205645093E-02  6.28179622306E-02  6.39341184344E-02  6.50693537708E-02
  6.62239943709E-02  6.73983719406E-02  6.85928238560E-02  6.98076932598E-02
  7.10433291606E-02  7.23000865326E-02  7.35783264180E-02  7.48784160303E-02
  7.62007288601E-02  7.75456447822E-02  7.89135501651E-02  8.03048379814E-02
  8.17199079213E-02  8.31591665069E-02  8.46230272093E-02  8.61119105675E-02
  8.76262443088E-02  8.91664634719E-02  9.07330105322E-02  9.23263355281E-02
  9.39468961911E-02  9.55951580770E-02  9.72715946995E-02  9.89766876664E-02
  1.00710926818E-01  1.02474810367E-01  1.04268845045E-01  1.06093546241E-01
  1.07949438157E-01  1.09837053956E-01  1.11756935912E-01  1.13709635571E-01
  1.15695713906E-01  1.17715741477E-01  1.19770298601E-01  1.21859975512E-01
  1.23985372533E-01  1.26147100250E-01  1.28345779685E-01  1.30582042477E-01
  1.32856531060E-01  1.35169898851E-01  1.37522810436E-01  1.39915941761E-01
  1.42349980326E-01  1.44825625383E-01  1.47343588137E-01  1.49904591951E-01
  1.52509372551E-01  1.55158678239E-01  1.57853270111E-01  1.60593922271E-01
  1.63381422054E-01  1.66216570256E-01  1.69100181359E-01  1.72033083770E-01
  1.75016120055E-01  1.78050147181E-01  1.81136036767E-01  1.84274675329E-01
  1.87466964536E-01  1.90713821473E-01  1.94016178897E-01  1.97374985513E-01
  2.00791206240E-01  2.04265822493E-01  2.07799832461E-01  2.11394251398E-01
  2.15050111910E-01  2.18768464255E-01  2.22550376645E-01  2.26396935548E-01
  2.30309246008E-01  2.34288431955E-01  2.38335636532E-01  2.42452022423E-01
  2.46638772186E-01  2.50897088593E-01  2.55228194977E-01  2.59633335579E-01
  2.64113775912E-01  2.68670803119E-01  2.73305726347E-01  2.78019877119E-01
  2.82814609719E-01  2.87691301581E-01  2.92651353685E-01  2.97696190957E-01
  3.02827262682E-01  3.08046042917E-01  3.13354030916E-01  3.18752751563E-01
  3.24243755804E-01  3.29828621100E-01  3.35508951873E-01  3.41286379974E-01
  3.47162565144E-01  3.53139195500E-01  3.59217988010E-01  3.65400688995E-01
  3.71689074624E-01  3.78084951430E-01  3.84590156823E-01  3.91206559624E-01
  3.97936060596E-01  4.04780592996E-01  4.11742123125E-01  4.18822650896E-01
  4.26024210408E-01  4.33348870529E-01  4.40798735492E-01  4.48375945500E-01
  4.56082677337E-01  4.63921145000E-01  4.71893600329E-01  4.80002333654E-01
  4.88249674459E-01  4.96637992045E-01  5.05169696214E-01  5.13847237958E-01
  5.22673110168E-01  5.31649848345E-01  5.40780031334E-01  5.50066282059E-01
  5.59511268280E-01  5.69117703359E-01  5.78888347038E-01  5.88826006236E-01
  5.98933535848E-01  6.09213839572E-01  6.19669870742E-01  6.30304633172E-01
  6.41121182023E-01  6.52122624681E-01  6.63312121648E-01  6.74692887450E-01
  6.86268191559E-01  6.98041359338E-01  7.10015772989E-01  7.22194872529E-01
  7.34582156779E-01  7.47181184366E-01  7.59995574745E-01  7.73029009244E-01
  7.86285232117E-01  7.99768051619E-01  8.13481341103E-01  8.27429040133E-01
  8.41615155612E-01  8.56043762936E-01  8.70719007167E-01  8.85645104216E-01
  9.00826342063E-01  9.16267081984E-01  9.31971759805E-01  9.47944887176E-01
  9.64191052866E-01  9.80714924086E-01  9.97521247823E-01  1.01461485221E+00
  1.03200064791E+00  1.04968362952E+00  1.06766887702E+00  1.08596155723E+00
  1.10456692528E+00  1.12349032612E+00  1.14273719610E+00  1.16231306446E+00
  1.18222355496E+00  1.20247438752E+00  1.22307137979E+00  1.24402044890E+00
  1.26532761311E+00  1.28699899356E+00  1.30904081601E+00  1.33145941266E+00
  1.35426122392E+00  1.37745280033E+00  1.40104080437E+00  1.42503201242E+00
  1.44943331668E+00  1.47425172719E+00  1.49949437379E+00  1.52516850821E+00
  1.55128150612E+00  1.57784086928E+00  1.60485422770E+00  1.63232934177E+00
  1.66027410458E+00  1.68869654410E+00  1.71760482557E+00  1.74700725376E+00
  1.77691227542E+00  1.80732848170E+00  1.83826461057E+00  1.86972954939E+00
  1.90173233742E+00  1.93428216846E+00  1.96738839342E+00  2.00106052311E+00
  2.03530823085E+00  2.07014135536E+00  2.10556990352E+00  2.14160405327E+00
  2.17825415652E+00  2.21553074213E+00  2.25344451895E+00  2.29200637888E+00
  2.33122739998E+00  2.37111884970E+00  2.41169218808E+00  2.45295907105E+00
  2.49493135380E+00  2.53762109414E+00  2.58104055601E+00  2.62520221299E+00
  2.67011875186E+00  2.71580307628E+00  2.76226831047E+00  2.80952780299E+00
  2.85759513057E+00  2.90648410204E+00  2.95620876224E+00  3.00678339612E+00
  3.05822253278E+00  3.11054094969E+00  3.16375367692E+00  3.21787600146E+00
  3.27292347160E+00  3.32891190142E+00  3.38585737531E+00  3.44377625260E+00
  3.50268517227E+00  3.56260105770E+00  3.62354112158E+00  3.68552287080E+00
  3.74856411152E+00  3.81268295426E+00  3.87789781914E+00  3.94422744112E+00
  4.01169087542E+00  4.08030750298E+00  4.15009703602E+00  4.22107952372E+00
  4.29327535800E+00  4.36670527930E+00  4.44139038262E+00  4.51735212356E+00
  4.59461232444E+00  4.67319318063E+00  4.75311726689E+00  4.83440754387E+00
  4.91708736467E+00  5.00118048163E+00  5.08671105305E+00  5.17370365023E+00
  5.26218326445E+00  5.35217531419E+00  5.44370565243E+00  5.53680057406E+00
  5.63148682344E+00  5.72779160212E+00  5.82574257658E+00  5.92536788625E+00
  6.02669615156E+00  6.12975648214E+00  6.23457848524E+00  6.34119227419E+00
  6.44962847707E+00  6.55991824551E+00  6.67209326361E+00  6.78618575710E+00
  6.90222850253E+00  7.02025483675E+00  7.14029866643E+00  7.26239447784E+00
  7.38657734675E+00  7.51288294850E+00  7.64134756823E+00  7.77200811135E+00
  7.90490211410E+00  8.04006775436E+00  8.17754386261E+00  8.31736993306E+00
  8.45958613504E+00  8.60423332451E+00  8.75135305582E+00  8.90098759361E+00
  9.05317992499E+00  9.20797377188E+00  9.36541360354E+00  9.52554464941E+00
  9.68841291202E+00  9.85406518028E+00  1.00225490429E+01  1.01939129020E+01
  1.03682059871E+01  1.05454783692E+01  1.07257809753E+01  1.09091656029E+01
  1.10956849347E+01  1.12853925542E+01  1.14783429606E+01  1.16745915850E+01
  1.18741948058E+01  1.20772099650E+01  1.22836953850E+01  1.24937103852E+01
  1.27073152986E+01  1.29245714900E+01  1.31455413727E+01  1.33702884272E+01
  1.35988772189E+01  1.38313734170E+01  1.40678438131E+01  1.43083563406E+01
  1.45529800941E+01  1.48017853493E+01  1.50548435831E+01  1.53122274942E+01
  1.55740110241E+01  1.58402693780E+01  1.61110790470E+01  1.63865178292E+01
  1.66666648531E+01  1.69516005993E+01  1.72414069245E+01  1.75361670844E+01
  1.78359657578E+01  1.81408890711E+01  1.84510246229E+01  1.87664615091E+01
  1.90872903487E+01  1.94136033095E+01  1.97454941350E+01  2.00830581710E+01
  2.04263923931E+01  2.07755954345E+01  2.11307676145E+01  2.14920109673E+01
  2.18594292711E+01  2.22331280780E+01  2.26132147444E+01  2.29997984620E+01
  2.33929902887E+01  2.37929031809E+01  2.41996520259E+01  2.46133536747E+01
  2.50341269758E+01  2.54620928093E+01  2.58973741215E+01  2.63400959602E+01
  2.67903855108E+01  2.72483721329E+01  2.77141873971E+01  2.81879651232E+01
  2.86698414183E+01  2.91599547161E+01  2.96584458168E+01  3.01654579271E+01
  3.06811367018E+01  3.12056302856E+01  3.17390893551E+01  3.22816671629E+01
  3.28335195812E+01  3.33948051463E+01  3.39656851048E+01  3.45463234596E+01
  3.51368870166E+01  3.57375454334E+01  3.63484712676E+01  3.69698400263E+01
  3.76018302168E+01  3.82446233975E+01  3.88984042306E+01  3.95633605346E+01
  4.02396833386E+01  4.09275669370E+01  4.16272089455E+01  4.23388103578E+01
  4.30625756030E+01  4.37987126050E+01  4.45474328418E+01  4.53089514060E+01
  4.60834870673E+01  4.68712623348E+01  4.76725035210E+01  4.84874408072E+01
  4.93163083088E+01  5.01593441437E+01  5.10167904996E+01  5.18888937042E+01
  5.27759042961E+01  5.36780770961E+01  5.45956712810E+01  5.55289504579E+01
  5.64781827398E+01  5.74436408228E+01  5.84256020644E+01  5.94243485629E+01
  6.04401672390E+01  6.14733499176E+01  6.25241934122E+01  6.35929996098E+01
  6.46800755577E+01  6.57857335518E+01  6.69102912262E+01  6.80540716446E+01
  6.92174033930E+01  7.04006206740E+01  7.16040634032E+01  7.28280773063E+01
  7.40730140188E+01  7.53392311870E+01  7.66270925705E+01  7.79369681470E+01
  7.92692342184E+01  8.06242735189E+01  8.20024753252E+01
  </PP_R>
  <PP_RAB>
  4.20127487571E-05  4.27308980635E-05  4.34613231301E-05  4.42042337938E-05
  4.49598434784E-05  4.57283692561E-05  4.65100319094E-05  4.73050559949E-05
  4.81136699076E-05  4.89361059465E-05  4.97726003818E-05  5.06233935220E-05
  5.14887297836E-05  5.23688577609E-05  5.32640302976E-05  5.41745045595E-05
  5.51005421083E-05  5.60424089766E-05  5.70003757445E-05  5.79747176173E-05
  5.89657145047E-05  5.99736511008E-05  6.09988169663E-05  6.20415066116E-05
  6.31020195812E-05  6.41806605399E-05  6.52777393604E-05  6.63935712123E-05
  6.75284766524E-05  6.86827817171E-05  6.98568180159E-05  7.10509228268E-05
  7.22654391929E-05  7.35007160212E-05  7.47571081830E-05  7.60349766154E-05
  7.73346884252E-05  7.86566169945E-05  8.00011420877E-05  8.13686499611E-05
  8.27595334729E-05  8.41741921973E-05  8.56130325383E-05  8.70764678468E-05
  8.85649185396E-05  9.00788122196E-05  9.16185837993E-05  9.31846756252E-05
  9.47775376052E-05  9.63976273378E-05  9.80454102433E-05  9.97213596979E-05
  1.01425957169E-04  1.03159692356E-04  1.04923063326E-04  1.06716576661E-04
  1.08540747604E-04  1.10396100203E-04  1.12283167466E-04  1.14202491510E-04
  1.16154623720E-04  1.18140124905E-04  1.20159565463E-04  1.22213525538E-04
  1.24302595194E-04  1.26427374580E-04  1.28588474105E-04  1.30786514610E-04
  1.33022127550E-04  1.35295955173E-04  1.37608650706E-04  1.39960878541E-04
  1.42353314428E-04  1.44786645668E-04  1.47261571310E-04  1.49778802351E-04
  1.52339061944E-04  1.54943085602E-04  1.57591621409E-04  1.60285430240E-04
  1.63025285974E-04  1.65811975717E-04  1.68646300033E-04  1.71529073167E-04
  1.74461123284E-04  1.77443292706E-04  1.80476438153E-04  1.83561430988E-04
  1.86699157470E-04  1.89890519007E-04  1.93136432415E-04  1.96437830184E-04
  1.99795660739E-04  2.03210888722E-04  2.06684495261E-04  2.10217478256E-04
  2.13810852664E-04  2.17465650793E-04  2.21182922595E-04  2.24963735971E-04
  2.28809177075E-04  2.32720350628E-04  2.36698380234E-04  2.40744408705E-04
  2.44859598386E-04  2.49045131491E-04  2.53302210443E-04  2.57632058218E-04
  2.62035918699E-04  2.66515057028E-04  2.71070759976E-04  2.75704336308E-04
  2.80417117160E-04  2.85210456424E-04  2.90085731133E-04  2.95044341859E-04
  3.00087713115E-04  3.05217293765E-04  3.10434557436E-04  3.15741002949E-04
  3.21138154742E-04  3.26627563312E-04  3.32210805661E-04  3.37889485746E-04
  3.43665234942E-04  3.49539712509E-04  3.55514606072E-04  3.61591632102E-04
  3.67772536411E-04  3.74059094652E-04  3.80453112834E-04  3.86956427832E-04
  3.93570907924E-04  4.00298453322E-04  4.07140996720E-04  4.14100503847E-04
  4.21178974036E-04  4.28378440794E-04  4.35700972389E-04  4.43148672442E-04
  4.50723680533E-04  4.58428172815E-04  4.66264362641E-04  4.74234501195E-04
  4.82340878145E-04  4.90585822296E-04  4.98971702260E-04  5.07500927138E-04
  5.16175947212E-04  5.24999254648E-04  5.33973384210E-04  5.43100913992E-04
  5.52384466158E-04  5.61826707692E-04  5.71430351167E-04  5.81198155524E-04
  5.91132926865E-04  6.01237519256E-04  6.11514835553E-04  6.21967828228E-04
  6.32599500225E-04  6.43412905817E-04  6.54411151486E-04  6.65597396816E-04
  6.76974855398E-04  6.88546795755E-04  7.00316542283E-04  7.12287476203E-04
  7.24463036530E-04  7.36846721069E-04  7.49442087413E-04  7.62252753965E-04
  7.75282400984E-04  7.88534771634E-04  8.02013673066E-04  8.15722977506E-04
  8.29666623372E-04  8.43848616404E-04  8.58273030815E-04  8.72944010460E-04
  8.87865770026E-04  9.03042596247E-04  9.18478849131E-04  9.34178963216E-04
  9.50147448839E-04  9.66388893438E-04  9.82907962866E-04  9.99709402732E-04
  1.01679803976E-03  1.03417878320E-03  1.05185662618E-03  1.06983664722E-03
  1.08812401163E-03  1.10672397300E-03  1.12564187476E-03  1.14488315165E-03
  1.16445333131E-03  1.18435803589E-03  1.20460298360E-03  1.22519399045E-03
  1.24613697182E-03  1.26743794423E-03  1.28910302703E-03  1.31113844419E-03
  1.33355052605E-03  1.35634571117E-03  1.37953054817E-03  1.40311169759E-03
  1.42709593386E-03  1.45149014718E-03  1.47630134553E-03  1.50153665668E-03
  1.52720333026E-03  1.55330873981E-03  1.57986038490E-03  1.60686589330E-03
  1.63433302318E-03  1.66226966532E-03  1.69068384536E-03  1.71958372615E-03
  1.74897761008E-03  1.77887394143E-03  1.80928130883E-03  1.84020844775E-03
  1.87166424295E-03  1.90365773106E-03  1.93619810320E-03  1.96929470759E-03
  2.00295705224E-03  2.03719480770E-03  2.07201780980E-03  2.10743606252E-03
  2.14345974084E-03  2.18009919367E-03  2.21736494681E-03  2.25526770599E-03
  2.29381835994E-03  2.33302798352E-03  2.37290784089E-03  2.41346938877E-03
  2.45472427970E-03  2.49668436542E-03  2.53936170024E-03  2.58276854454E-03
  2.62691736826E-03  2.67182085451E-03  2.71749190319E-03  2.76394363470E-03
  2.81118939374E-03  2.85924275309E-03  2.90811751756E-03  2.95782772791E-03
  3.00838766494E-03  3.05981185352E-03  3.11211506684E-03  3.16531233060E-03
  3.21941892734E-03  3.27445040084E-03  3.33042256057E-03  3.38735148626E-03
  3.44525353249E-03  3.50414533338E-03  3.56404380742E-03  3.62496616228E-03
  3.68692989978E-03  3.74995282088E-03  3.81405303087E-03  3.87924894449E-03
  3.94555929126E-03  4.01300312087E-03  4.08159980862E-03  4.15136906101E-03
  4.22233092140E-03  4.29450577576E-03  4.36791435853E-03  4.44257775857E-03
  4.51851742523E-03  4.59575517451E-03  4.67431319532E-03  4.75421405586E-03
  4.83548071010E-03  4.91813650437E-03  5.00220518410E-03  5.08771090057E-03
  5.17467821794E-03  5.26313212023E-03  5.35309801852E-03  5.44460175829E-03
  5.53766962679E-03  5.63232836061E-03  5.72860515339E-03  5.82652766356E-03
  5.92612402239E-03  6.02742284198E-03  6.13045322351E-03  6.23524476562E-03
  6.34182757289E-03  6.45023226451E-03  6.56048998304E-03  6.67263240339E-03
  6.78669174191E-03  6.90270076564E-03  7.02069280173E-03  7.14070174700E-03
  7.26276207770E-03  7.38690885941E-03  7.51317775709E-03  7.64160504536E-03
  7.77222761888E-03  7.90508300300E-03  8.04020936450E-03  8.17764552256E-03
  8.31743095993E-03  8.45960583427E-03  8.60421098967E-03  8.75128796838E-03
  8.90087902279E-03  9.05302712749E-03  9.20777599171E-03  9.36517007179E-03
  9.52525458401E-03  9.68807551755E-03  9.85367964771E-03  1.00221145494E-02
  1.01934286106E-02  1.03676710466E-02  1.05448919139E-02  1.07251421245E-02
  1.09084734610E-02  1.10949385908E-02  1.12845910818E-02  1.14774854174E-02
  1.16736770125E-02  1.18732222291E-02  1.20761783926E-02  1.22826038086E-02
  1.24925577789E-02  1.27061006194E-02  1.29232936766E-02  1.31441993461E-02
  1.33688810897E-02  1.35974034542E-02  1.38298320895E-02  1.40662337680E-02
  1.43066764032E-02  1.45512290697E-02  1.47999620228E-02  1.50529467185E-02
  1.53102558346E-02  1.55719632909E-02  1.58381442709E-02  1.61088752433E-02
  1.63842339838E-02  1.66642995977E-02  1.69491525424E-02  1.72388746506E-02
  1.75335491540E-02  1.78332607067E-02  1.81380954101E-02  1.84481408374E-02
  1.87634860585E-02  1.90842216661E-02  1.94104398013E-02  1.97422341802E-02
  2.00797001210E-02  2.04229345711E-02  2.07720361351E-02  2.11271051031E-02
  2.14882434795E-02  2.18555550125E-02  2.22291452235E-02  2.26091214378E-02
  2.29955928152E-02  2.33886703814E-02  2.37884670601E-02  2.41950977050E-02
  2.46086791332E-02  2.50293301588E-02  2.54571716266E-02  2.58923264472E-02
  2.63349196321E-02  2.67850783298E-02  2.72429318623E-02  2.77086117618E-02
  2.81822518094E-02  2.86639880725E-02  2.91539589448E-02  2.96523051853E-02
  3.01591699593E-02  3.06746988792E-02  3.11990400465E-02  3.17323440943E-02
  3.22747642305E-02  3.28264562819E-02  3.33875787390E-02  3.39582928014E-02
  3.45387624242E-02  3.51291543651E-02  3.57296382322E-02  3.63403865330E-02
  3.69615747237E-02  3.75933812595E-02  3.82359876463E-02  3.88895784924E-02
  3.95543415619E-02  4.02304678284E-02  4.09181515297E-02  4.16175902242E-02
  4.23289848470E-02  4.30525397680E-02  4.37884628507E-02  4.45369655113E-02
  4.52982627804E-02  4.60725733637E-02  4.68601197059E-02  4.76611280536E-02
  4.84758285212E-02  4.93044551562E-02  5.01472460071E-02  5.10044431915E-02
  5.18762929653E-02  5.27630457943E-02  5.36649564253E-02  5.45822839599E-02
  5.55152919284E-02  5.64642483660E-02  5.74294258896E-02  5.84111017759E-02
  5.94095580414E-02  6.04250815233E-02  6.14579639619E-02  6.25085020843E-02
  6.35769976897E-02  6.46637577363E-02  6.57690944292E-02  6.68933253102E-02
  6.80367733491E-02  6.91997670365E-02  7.03826404779E-02  7.15857334899E-02
  7.28093916978E-02  7.40539666351E-02  7.53198158441E-02  7.66073029785E-02
  7.79167979088E-02  7.92486768273E-02  8.06033223571E-02  8.19811236617E-02
  8.33824765568E-02  8.48077836238E-02  8.62574543259E-02  8.77319051256E-02
  8.92315596038E-02  9.07568485825E-02  9.23082102475E-02  9.38860902751E-02
  9.54909419597E-02  9.71232263440E-02  9.87834123519E-02  1.00471976923E-01
  1.02189405148E-01  1.03936190412E-01  1.05712834532E-01  1.07519847904E-01
  1.09357749648E-01  1.11227067757E-01  1.13128339251E-01  1.15062110327E-01
  1.17028936520E-01  1.19029382863E-01  1.21064024044E-01  1.23133444577E-01
  1.25238238965E-01  1.27379011876E-01  1.29556378312E-01  1.31770963789E-01
  1.34023404513E-01  1.36314347568E-01  1.38644451098E-01  1.41014384495E-01
  1.43424828597E-01  1.45876475876E-01  1.48370030644E-01  1.50906209251E-01
  1.53485740291E-01  1.56109364814E-01  1.58777836538E-01  1.61491922061E-01
  1.64252401088E-01  1.67060066652E-01  1.69915725340E-01  1.72820197528E-01
  1.75774317614E-01  1.78778934261E-01  1.81834910636E-01  1.84943124662E-01
  1.88104469269E-01  1.91319852650E-01  1.94590198522E-01  1.97916446393E-01
  2.01299551830E-01  2.04740486732E-01  2.08240239614E-01  2.11799815887E-01
  2.15420238149E-01  2.19102546477E-01  2.22847798726E-01  2.26657070836E-01
  2.30531457136E-01  2.34472070663E-01  2.38480043479E-01  2.42556526996E-01
  2.46702692310E-01  2.50919730533E-01  2.55208853140E-01  2.59571292311E-01
  2.64008301292E-01  2.68521154749E-01  2.73111149138E-01  2.77779603075E-01
  2.82527857716E-01  2.87357277144E-01  2.92269248757E-01  2.97265183670E-01
  3.02346517118E-01  3.07514708869E-01  3.12771243645E-01  3.18117631548E-01
  3.23555408490E-01  3.29086136639E-01  3.34711404868E-01  3.40432829207E-01
  3.46252053309E-01  3.52170748926E-01  3.58190616385E-01  3.64313385076E-01
  3.70540813954E-01  3.76874692036E-01  3.83316838925E-01  3.89869105325E-01
  3.96533373574E-01  4.03311558187E-01  4.10205606408E-01  4.17217498761E-01
  4.24349249627E-01  4.31602907822E-01  4.38980557181E-01  4.46484317158E-01
  4.54116343441E-01  4.61878828561E-01  4.69774002531E-01  4.77804133481E-01
  4.85971528313E-01  4.94278533361E-01  5.02727535067E-01  5.11320960666E-01
  5.20061278882E-01  5.28951000640E-01  5.37992679784E-01  5.47188913815E-01
  5.56542344633E-01  5.66055659296E-01  5.75731590797E-01  5.85572918843E-01
  5.95582470657E-01  6.05763121790E-01  6.16117796946E-01  6.26649470822E-01
  6.37361168965E-01  6.48255968639E-01  6.59336999708E-01  6.70607445538E-01
  6.82070543911E-01  6.93729587952E-01  7.05587927080E-01  7.17648967965E-01
  7.29916175512E-01  7.42393073851E-01  7.55083247355E-01  7.67990341664E-01
  7.81118064737E-01  7.94470187915E-01  8.08050547004E-01  8.21863043379E-01
  8.35911645102E-01  8.50200388065E-01  8.64733377148E-01  8.79514787397E-01
  8.94548865225E-01  9.09839929631E-01  9.25392373443E-01  9.41210664577E-01
  9.57299347322E-01  9.73663043644E-01  9.90306454518E-01  1.00723436127E+00
  1.02445162697E+00  1.04196319779E+00  1.05977410448E+00  1.07788946376E+00
  1.09631447983E+00  1.11505444583E+00  1.13411474540E+00  1.15350085418E+00
  1.17321834144E+00  1.19327287163E+00  1.21367020602E+00  1.23441620438E+00
  1.25551682663E+00  1.27697813456E+00  1.29880629360E+00  1.32100757456E+00
  1.34358835543E+00  1.36655512324E+00  1.38991447589E+00
  </PP_RAB>
</PP_MESH>


<PP_LOCAL>
 -4.93510838944E+00 -4.93510838944E+00 -4.93698376136E+00 -4.93634368105E+00
 -4.93647738262E+00 -4.93647480819E+00 -4.93647469631E+00 -4.93647455236E+00
 -4.93647431738E+00 -4.93647402329E+00 -4.93647367705E+00 -4.93647328347E+00
 -4.93647283948E+00 -4.93647234236E+00 -4.93647179290E+00 -4.93647118601E+00
 -4.93647051975E+00 -4.93646979312E+00 -4.93646900132E+00 -4.93646814236E+00
 -4.93646721345E+00 -4.93646621111E+00 -4.93646513233E+00 -4.93646397273E+00
 -4.93646273120E+00 -4.93646140251E+00 -4.93645998158E+00 -4.93645846715E+00
 -4.93645685449E+00 -4.93645513802E+00 -4.93645331459E+00 -4.93645137985E+00
 -4.93644932806E+00 -4.93644715511E+00 -4.93644485614E+00 -4.93644242536E+00
 -4.93643985774E+00 -4.93643714735E+00 -4.93643428843E+00 -4.93643127508E+00
 -4.93642810124E+00 -4.93642475970E+00 -4.93642124415E+00 -4.93641754751E+00
 -4.93641366214E+00 -4.93640958148E+00 -4.93640529720E+00 -4.93640080035E+00
 -4.93639608379E+00 -4.93639113848E+00 -4.93638595487E+00 -4.93638052408E+00
 -4.93637483662E+00 -4.93636888174E+00 -4.93636264965E+00 -4.93635612937E+00
 -4.93634930938E+00 -4.93634217867E+00 -4.93633472491E+00 -4.93632693537E+00
 -4.93631879755E+00 -4.93631029815E+00 -4.93630142316E+00 -4.93629215798E+00
 -4.93628248796E+00 -4.93627239773E+00 -4.93626187139E+00 -4.93625089207E+00
 -4.93623944292E+00 -4.93622750614E+00 -4.93621506325E+00 -4.93620209518E+00
 -4.93618858235E+00 -4.93617450421E+00 -4.93615983954E+00 -4.93614456649E+00
 -4.93612866246E+00 -4.93611210350E+00 -4.93609486555E+00 -4.93607692339E+00
 -4.93605825094E+00 -4.93603882087E+00 -4.93601860525E+00 -4.93599757504E+00
 -4.93597570032E+00 -4.93595294971E+00 -4.93592929116E+00 -4.93590469106E+00
 -4.93587911520E+00 -4.93585252742E+00 -4.93582489088E+00 -4.93579616710E+00
 -4.93576631645E+00 -4.93573529758E+00 -4.93570306815E+00 -4.93566958390E+00
 -4.93563479932E+00 -4.93559866688E+00 -4.93556113797E+00 -4.93552216172E+00
 -4.93548168582E+00 -4.93543965583E+00 -4.93539601580E+00 -4.93535070737E+00
 -4.93530367047E+00 -4.93525484254E+00 -4.93520415940E+00 -4.93515155403E+00
 -4.93509695751E+00 -4.93504029809E+00 -4.93498150204E+00 -4.93492049238E+00
 -4.93485719023E+00 -4.93479151301E+00 -4.93472337632E+00 -4.93465269185E+00
 -4.93457936898E+00 -4.93450331315E+00 -4.93442442742E+00 -4.93434261058E+00
 -4.93425775873E+00 -4.93416976343E+00 -4.93407851356E+00 -4.93398389303E+00
 -4.93388578280E+00 -4.93378405854E+00 -4.93367859291E+00 -4.93356925282E+00
 -4.93345590188E+00 -4.93333839771E+00 -4.93321659430E+00 -4.93309033926E+00
 -4.93295947632E+00 -4.93282384239E+00 -4.93268327029E+00 -4.93253758550E+00
 -4.93238660908E+00 -4.93223015433E+00 -4.93206802982E+00 -4.93190003574E+00
 -4.93172596741E+00 -4.93154561112E+00 -4.93135874782E+00 -4.93116514889E+00
 -4.93096458024E+00 -4.93075679727E+00 -4.93054154957E+00 -4.93031857574E+00
 -4.93008760794E+00 -4.92984836673E+00 -4.92960056581E+00 -4.92934390638E+00
 -4.92907808246E+00 -4.92880277471E+00 -4.92851765601E+00 -4.92822238520E+00
 -4.92791661276E+00 -4.92759997412E+00 -4.92727209581E+00 -4.92693258850E+00
 -4.92658105326E+00 -4.92621707412E+00 -4.92584022518E+00 -4.92545006226E+00
 -4.92504613060E+00 -4.92462795603E+00 -4.92419505308E+00 -4.92374691567E+00
 -4.92328302575E+00 -4.92280284329E+00 -4.92230581558E+00 -4.92179136657E+00
 -4.92125890672E+00 -4.92070782175E+00 -4.92013748308E+00 -4.91954723578E+00
 -4.91893640987E+00 -4.91830430738E+00 -4.91765021440E+00 -4.91697338743E+00
 -4.91627306605E+00 -4.91554845847E+00 -4.91479875513E+00 -4.91402311321E+00
 -4.91322067117E+00 -4.91239053223E+00 -4.91153178006E+00 -4.91064346096E+00
 -4.90972460072E+00 -4.90877418573E+00 -4.90779118084E+00 -4.90677450932E+00
 -4.90572307195E+00 -4.90463572572E+00 -4.90351130410E+00 -4.90234859450E+00
 -4.90114635992E+00 -4.89990331485E+00 -4.89861814852E+00 -4.89728949928E+00
 -4.89591597936E+00 -4.89449614763E+00 -4.89302853612E+00 -4.89151162105E+00
 -4.88994385116E+00 -4.88832361687E+00 -4.88664928060E+00 -4.88491914410E+00
 -4.88313148066E+00 -4.88128450054E+00 -4.87937638542E+00 -4.87740525159E+00
 -4.87536918680E+00 -4.87326621129E+00 -4.87109431707E+00 -4.86885142658E+00
 -4.86653543469E+00 -4.86414416488E+00 -4.86167541409E+00 -4.85912690628E+00
 -4.85649634027E+00 -4.85378134074E+00 -4.85097950898E+00 -4.84808837138E+00
 -4.84510543342E+00 -4.84202812494E+00 -4.83885385823E+00 -4.83557996977E+00
 -4.83220378216E+00 -4.82872254291E+00 -4.82513348986E+00 -4.82143378691E+00
 -4.81762059364E+00 -4.81369099723E+00 -4.80964208662E+00 -4.80547088064E+00
 -4.80117440678E+00 -4.79674962536E+00 -4.79219351295E+00 -4.78750298259E+00
 -4.78267497197E+00 -4.77770635935E+00 -4.77259405666E+00 -4.76733492091E+00
 -4.76192585243E+00 -4.75636370137E+00 -4.75064537089E+00 -4.74476771875E+00
 -4.73872766555E+00 -4.73252209071E+00 -4.72614794570E+00 -4.71960214431E+00
 -4.71288168050E+00 -4.70598351253E+00 -4.69890468516E+00 -4.69164220713E+00
 -4.68419317756E+00 -4.67655465592E+00 -4.66872379223E+00 -4.66069768919E+00
 -4.65247353525E+00 -4.64404845838E+00 -4.63541966139E+00 -4.62658426659E+00