<PP_INFO>
Generated using Vanderbilt code, version   7  3  6                              
Author: kfg    Generation date:   23    7 2013                              
Automatically converted from original format                                    
    1        The Pseudo was generated with a Scalar-Relativistic Calculation
  2.50000000000E+00    Local Potential cutoff radius
nl pn  l   occ               Rcut            Rcut US             E pseu
6S  6  0  2.00      0.00000000000      1.85000000000     -0.50465790500
5D  5  2 10.00      0.00000000000      2.20000000000     -0.72617350000
6P  6  1  0.00      0.00000000000      2.20000000000     -0.07282107000
</PP_INFO>


<PP_HEADER>
   0                   Version Number
  Hg                   Element
   US                  Ultrasoft pseudopotential
    T                  Nonlinear Core Correction
SLA  PW   PSX  PSC     PBEsol  Exchange-Correlation functional
   12.00000000000      Z valence
 -107.48262562200      Total energy
    0.00000    0.00000 Suggested cutoff for wfc and rho
    2                  Max angular momentum component
  985                  Number of points in mesh
    3    6             Number of Wavefunctions, Number of Projectors
 Wavefunctions         nl  l   occ
                       6S  0  2.00
                       5D  2 10.00
                       6P  1  0.00
</PP_HEADER>


<PP_MESH>
  <PP_R>
  0.00000000000E+00  1.91567369830E-07  3.86354284168E-07  5.84414851744E-07
  7.85804090655E-07  9.90577943651E-07  1.19879329367E-06  1.41050797966E-06
  1.62578081261E-06  1.84467159191E-06  2.06724112197E-06  2.29355122908E-06
  2.52366477863E-06  2.75764569251E-06  2.99555896694E-06  3.23747069046E-06
  3.48344806233E-06  3.73355941118E-06  3.98787421399E-06  4.24646311540E-06
  4.50939794732E-06  4.77675174889E-06  5.04859878679E-06  5.32501457581E-06
  5.60607589992E-06  5.89186083349E-06  6.18244876308E-06  6.47792040942E-06
  6.77835784986E-06  7.08384454119E-06  7.39446534279E-06  7.71030654020E-06
  8.03145586912E-06  8.35800253977E-06  8.69003726165E-06  9.02765226877E-06
  9.37094134524E-06  9.71999985135E-06  1.00749247500E-05  1.04358146338E-05
  1.08027697522E-05  1.11758920396E-05  1.15552851434E-05  1.19410544531E-05
  1.23333071292E-05  1.27321521334E-05  1.31377002585E-05  1.35500641594E-05
  1.39693583843E-05  1.43956994064E-05  1.48292056566E-05  1.52699975560E-05
  1.57181975498E-05  1.61739301407E-05  1.66373219241E-05  1.71085016230E-05
  1.75876001235E-05  1.80747505117E-05  1.85700881103E-05  1.90737505162E-05
  1.95858776389E-05  2.01066117392E-05  2.06360974689E-05  2.11744819107E-05
  2.17219146193E-05  2.22785476628E-05  2.28445356652E-05  2.34200358489E-05
  2.40052080789E-05  2.46002149067E-05  2.52052216158E-05  2.58203962676E-05
  2.64459097478E-05  2.70819358142E-05  2.77286511448E-05  2.83862353869E-05
  2.90548712071E-05  2.97347443418E-05  3.04260436490E-05  3.11289611607E-05
  3.18436921364E-05  3.25704351170E-05  3.33093919802E-05  3.40607679966E-05
  3.48247718866E-05  3.56016158784E-05  3.63915157670E-05  3.71946909740E-05
  3.80113646090E-05  3.88417635309E-05  3.96861184114E-05  4.05446637990E-05
  4.14176381840E-05  4.23052840650E-05  4.32078480159E-05  4.41255807547E-05
  4.50587372132E-05  4.60075766074E-05  4.69723625100E-05  4.79533629232E-05
  4.89508503535E-05  4.99651018870E-05  5.09963992669E-05  5.20450289714E-05
  5.31112822931E-05  5.41954554203E-05  5.52978495194E-05  5.64187708179E-05
  5.75585306901E-05  5.87174457432E-05  5.98958379057E-05  6.10940345161E-05
  6.23123684146E-05  6.35511780352E-05  6.48108074995E-05  6.60916067128E-05
  6.73939314608E-05  6.87181435088E-05  7.00646107019E-05  7.14337070676E-05
  7.28258129191E-05  7.42413149615E-05  7.56806063989E-05  7.71440870437E-05
  7.86321634278E-05  8.01452489151E-05  8.16837638171E-05  8.32481355089E-05
  8.48387985481E-05  8.64561947959E-05  8.81007735394E-05  8.97729916166E-05
  9.14733135433E-05  9.32022116421E-05  9.49601661735E-05  9.67476654696E-05
  9.85652060694E-05  1.00413292857E-04  1.02292439202E-04  1.04203167101E-04
  1.06146007324E-04  1.08121499562E-04  1.10130192576E-04  1.12172644347E-04
  1.14249422238E-04  1.16361103145E-04  1.18508273658E-04  1.20691530229E-04
  1.22911479330E-04  1.25168737630E-04  1.27463932159E-04  1.29797700485E-04
  1.32170690892E-04  1.34583562561E-04  1.37036985747E-04  1.39531641975E-04
  1.42068224219E-04  1.44647437102E-04  1.47269997090E-04  1.49936632687E-04
  1.52648084642E-04  1.55405106155E-04  1.58208463083E-04  1.61058934153E-04
  1.63957311182E-04  1.66904399293E-04  1.69901017140E-04  1.72947997137E-04
  1.76046185687E-04  1.79196443416E-04  1.82399645418E-04  1.85656681491E-04
  1.88968456389E-04  1.92335890069E-04  1.95759917953E-04  1.99241491180E-04
  2.02781576877E-04  2.06381158424E-04  2.10041235728E-04  2.13762825500E-04
  2.17546961540E-04  2.21394695020E-04  2.25307094780E-04  2.29285247623E-04
  2.33330258617E-04  2.37443251402E-04  2.41625368503E-04  2.45877771646E-04
  2.50201642080E-04  2.54598180910E-04  2.59068609424E-04  2.63614169437E-04
  2.68236123633E-04  2.72935755918E-04  2.77714371776E-04  2.82573298631E-04
  2.87513886216E-04  2.92537506948E-04  2.97645556310E-04  3.02839453237E-04
  3.08120640512E-04  3.13490585165E-04  3.18950778882E-04  3.24502738419E-04
  3.30148006022E-04  3.35888149857E-04  3.41724764446E-04  3.47659471109E-04
  3.53693918412E-04  3.59829782630E-04  3.66068768210E-04  3.72412608242E-04
  3.78863064946E-04  3.85421930156E-04  3.92091025823E-04  3.98872204514E-04
  4.05767349935E-04  4.12778377447E-04  4.19907234605E-04  4.27155901691E-04
  4.34526392271E-04  4.42020753751E-04  4.49641067946E-04  4.57389451659E-04
  4.65268057269E-04  4.73279073327E-04  4.81424725168E-04  4.89707275525E-04
  4.98129025160E-04  5.06692313502E-04  5.15399519297E-04  5.24253061269E-04
  5.33255398792E-04  5.42409032574E-04  5.51716505350E-04  5.61180402588E-04
  5.70803353210E-04  5.80588030320E-04  5.90537151946E-04  6.00653481796E-04
  6.10939830029E-04  6.21399054028E-04  6.32034059202E-04  6.42847799786E-04
  6.53843279667E-04  6.65023553216E-04  6.76391726136E-04  6.87950956325E-04
  6.99704454757E-04  7.11655486366E-04  7.23807370961E-04  7.36163484143E-04
  7.48727258246E-04  7.61502183287E-04  7.74491807939E-04  7.87699740514E-04
  8.01129649969E-04  8.14785266918E-04  8.28670384677E-04  8.42788860313E-04
  8.57144615716E-04  8.71741638686E-04  8.86583984047E-04  9.01675774768E-04
  9.17021203110E-04  9.32624531790E-04  9.48490095168E-04  9.64622300445E-04
  9.81025628894E-04  9.97704637100E-04  1.01466395823E-03  1.03190830331E-03
  1.04944246256E-03  1.06727130667E-03  1.08539978823E-03  1.10383294305E-03
  1.12257589155E-03  1.14163384024E-03  1.16101208310E-03  1.18071600312E-03
  1.20075107374E-03  1.22112286036E-03  1.24183702197E-03  1.26289931261E-03
  1.28431558307E-03  1.30609178245E-03  1.32823395983E-03  1.35074826596E-03
  1.37364095496E-03  1.39691838605E-03  1.42058702534E-03  1.44465344760E-03
  1.46912433810E-03  1.49400649448E-03  1.51930682859E-03  1.54503236848E-03
  1.57119026029E-03  1.59778777028E-03  1.62483228680E-03  1.65233132241E-03
  1.68029251589E-03  1.70872363443E-03  1.73763257573E-03  1.76702737026E-03
  1.79691618342E-03  1.82730731784E-03  1.85820921571E-03  1.88963046109E-03
  1.92157978230E-03  1.95406605435E-03  1.98709830143E-03  2.02068569936E-03
  2.05483757820E-03  2.08956342480E-03  2.12487288545E-03  2.16077576856E-03
  2.19728204739E-03  2.23440186280E-03  2.27214552609E-03  2.31052352186E-03
  2.34954651090E-03  2.38922533319E-03  2.42957101088E-03  2.47059475135E-03
  2.51230795036E-03  2.55472219518E-03  2.59784926781E-03  2.64170114826E-03
  2.68629001791E-03  2.73162826284E-03  2.77772847729E-03  2.82460346717E-03
  2.87226625362E-03  2.92073007660E-03  2.97000839861E-03  3.02011490838E-03
  3.07106352470E-03  3.12286840030E-03  3.17554392576E-03  3.22910473350E-03
  3.28356570188E-03  3.33894195928E-03  3.39524888836E-03  3.45250213029E-03
  3.51071758912E-03  3.56991143618E-03  3.63010011460E-03  3.69130034383E-03
  3.75352912433E-03  3.81680374228E-03  3.88114177436E-03  3.94656109267E-03
  4.01307986965E-03  4.08071658318E-03  4.14949002166E-03  4.21941928926E-03
  4.29052381125E-03  4.36282333932E-03  4.43633795715E-03  4.51108808593E-03
  4.58709449007E-03  4.66437828296E-03  4.74296093280E-03  4.82286426861E-03
  4.90411048629E-03  4.98672215474E-03  5.07072222219E-03  5.15613402252E-03
  5.24298128179E-03  5.33128812479E-03  5.42107908177E-03  5.51237909524E-03
  5.60521352690E-03  5.69960816468E-03  5.79558922994E-03  5.89318338469E-03
  5.99241773905E-03  6.09331985876E-03  6.19591777282E-03  6.30023998133E-03
  6.40631546334E-03  6.51417368494E-03  6.62384460746E-03  6.73535869573E-03
  6.84874692661E-03  6.96404079756E-03  7.08127233539E-03  7.20047410519E-03
  7.32167921931E-03  7.44492134662E-03  7.57023472184E-03  7.69765415505E-03
  7.82721504134E-03  7.95895337070E-03  8.09290573795E-03  8.22910935294E-03
  8.36760205088E-03  8.50842230285E-03  8.65160922651E-03  8.79720259691E-03
  8.94524285760E-03  9.09577113182E-03  9.24882923395E-03  9.40445968111E-03
  9.56270570499E-03  9.72361126382E-03  9.88722105464E-03  1.00535805257E-02
  1.02227358889E-02  1.03947341331E-02  1.05696230366E-02  1.07474511807E-02
  1.09282679635E-02  1.11121236128E-02  1.12990692009E-02  1.14891566583E-02
  1.16824387883E-02  1.18789692817E-02  1.20788027315E-02  1.22819946482E-02
  1.24886014754E-02  1.26986806053E-02  1.29122903944E-02  1.31294901801E-02
  1.33503402973E-02  1.35749020944E-02  1.38032379514E-02  1.40354112962E-02
  1.42714866229E-02  1.45115295095E-02  1.47556066363E-02  1.50037858038E-02
  1.52561359524E-02  1.55127271810E-02  1.57736307666E-02  1.60389191840E-02
  1.63086661262E-02  1.65829465247E-02  1.68618365701E-02  1.71454137338E-02
  1.74337567890E-02  1.77269458328E-02  1.80250623086E-02  1.83281890284E-02
  1.86364101959E-02  1.89498114303E-02  1.92684797893E-02  1.95925037941E-02
  1.99219734533E-02  2.02569802885E-02  2.05976173592E-02  2.09439792891E-02
  2.12961622920E-02  2.16542641988E-02  2.20183844845E-02  2.23886242961E-02
  2.27650864803E-02  2.31478756123E-02  2.35370980250E-02  2.39328618381E-02
  2.43352769886E-02  2.47444552611E-02  2.51605103188E-02  2.55835577353E-02
  2.60137150264E-02  2.64511016831E-02  2.68958392044E-02  2.73480511315E-02
  2.78078630816E-02  2.82754027832E-02  2.87508001116E-02  2.92341871245E-02
  2.97256980993E-02  3.02254695699E-02  3.07336403649E-02  3.12503516462E-02
  3.17757469480E-02  3.23099722169E-02  3.28531758521E-02  3.34055087471E-02
  3.39671243312E-02  3.45381786123E-02  3.51188302204E-02  3.57092404512E-02
  3.63095733115E-02  3.69199955641E-02  3.75406767748E-02  3.81717893589E-02
  3.88135086297E-02  3.94660128466E-02  4.01294832649E-02  4.08041041862E-02
  4.14900630096E-02  4.21875502837E-02  4.28967597593E-02  4.36178884437E-02
  4.43511366550E-02  4.50967080780E-02  4.58548098207E-02  4.66256524717E-02
  4.74094501590E-02  4.82064206091E-02  4.90167852080E-02  4.98407690621E-02
  5.06786010610E-02  5.15305139413E-02  5.23967443509E-02  5.32775329150E-02
  5.41731243027E-02  5.50837672952E-02  5.60097148547E-02  5.69512241947E-02
  5.79085568518E-02  5.88819787578E-02  5.98717603140E-02  6.08781764660E-02
  6.19015067804E-02  6.29420355221E-02  6.40000517336E-02  6.50758493152E-02
  6.61697271063E-02  6.72819889690E-02  6.84129438720E-02  6.95629059768E-02
  7.07321947246E-02  7.19211349255E-02  7.31300568482E-02  7.43592963121E-02
  7.56091947806E-02  7.68800994557E-02  7.81723633746E-02  7.94863455080E-02
  8.08224108591E-02  8.21809305660E-02  8.35622820039E-02  8.49668488905E-02
  8.63950213922E-02  8.78471962328E-02  8.93237768036E-02  9.08251732752E-02
  9.23518027121E-02  9.39040891876E-02  9.54824639025E-02  9.70873653043E-02
  9.87192392093E-02  1.00378538926E-01  1.02065725383E-01  1.03781267252E-01
  1.05525641084E-01  1.07299331440E-01  1.09102831022E-01  1.10936640814E-01
  1.12801270218E-01  1.14697237201E-01  1.16625068431E-01  1.18585299430E-01
  1.20578474718E-01  1.22605147969E-01  1.24665882161E-01  1.26761249731E-01
  1.28891832742E-01  1.31058223035E-01  1.33261022398E-01  1.35500842735E-01
  1.37778306233E-01  1.40094045535E-01  1.42448703917E-01  1.44842935466E-01
  1.47277405261E-01  1.49752789559E-01  1.52269775984E-01  1.54829063715E-01
  1.57431363680E-01  1.60077398759E-01  1.62767903977E-01  1.65503626715E-01
  1.68285326913E-01  1.71113777284E-01  1.73989763526E-01  1.76914084543E-01
  1.79887552665E-01  1.82910993875E-01  1.85985248036E-01  1.89111169129E-01
  1.92289625485E-01  1.95521500028E-01  1.98807690522E-01  2.02149109820E-01
  2.05546686114E-01  2.09001363198E-01  2.12514100727E-01  2.16085874483E-01
  2.19717676648E-01  2.23410516081E-01  2.27165418593E-01  2.30983427238E-01
  2.34865602597E-01  2.38813023078E-01  2.42826785212E-01  2.46908003958E-01
  2.51057813015E-01  2.55277365134E-01  2.59567832440E-01  2.63930406757E-01
  2.68366299939E-01  2.72876744208E-01  2.77462992493E-01  2.82126318783E-01
  2.86868018474E-01  2.91689408737E-01  2.96591828878E-01  3.01576640711E-01
  3.06645228939E-01  3.11799001536E-01  3.17039390137E-01  3.22367850440E-01
  3.27785862608E-01  3.33294931678E-01  3.38896587984E-01  3.44592387575E-01
  3.50383912657E-01  3.56272772023E-01  3.62260601504E-01  3.68349064426E-01
  3.74539852068E-01  3.80834684132E-01  3.87235309223E-01  3.93743505335E-01
  4.00361080340E-01  4.07089872498E-01  4.13931750959E-01  4.20888616290E-01
  4.27962400999E-01  4.35155070070E-01  4.42468621515E-01  4.49905086921E-01
  4.57466532021E-01  4.65155057267E-01  4.72972798407E-01  4.80921927088E-01
  4.89004651452E-01  4.97223216752E-01  5.05579905976E-01  5.14077040480E-01
  5.22716980634E-01  5.31502126476E-01  5.40434918382E-01  5.49517837740E-01
  5.58753407642E-01  5.68144193582E-01  5.77692804174E-01  5.87401891870E-01
  5.97274153702E-01  6.07312332027E-01  6.17519215295E-01  6.27897638814E-01
  6.38450485548E-01  6.49180686911E-01  6.60091223583E-01  6.71185126339E-01
  6.82465476890E-01  6.93935408739E-01  7.05598108052E-01  7.17456814544E-01
  7.29514822374E-01  7.41775481068E-01  7.54242196442E-01  7.66918431554E-01
  7.79807707662E-01  7.92913605202E-01  8.06239764786E-01  8.19789888211E-01
  8.33567739487E-01  8.47577145884E-01  8.61821998992E-01  8.76306255809E-01
  8.91033939831E-01  9.06009142177E-01  9.21236022720E-01  9.36718811249E-01
  9.52461808638E-01  9.68469388041E-01  9.84745996113E-01  1.00129615424E+00
  1.01812445979E+00  1.03523558740E+00  1.05263429028E+00  1.07032540150E+00
  1.08831383539E+00  1.10660458884E+00  1.12520274273E+00  1.14411346335E+00
  1.16334200378E+00  1.18289370541E+00  1.20277399940E+00  1.22298840819E+00
  1.24354254700E+00  1.26444212546E+00  1.28569294914E+00  1.30730092119E+00
  1.32927204395E+00  1.35161242066E+00  1.37432825713E+00  1.39742586344E+00
  1.42091165576E+00  1.44479215807E+00  1.46907400398E+00  1.49376393862E+00
  1.51886882046E+00  1.54439562324E+00  1.57035143790E+00  1.59674347455E+00
  1.62357906449E+00  1.65086566223E+00  1.67861084754E+00  1.70682232760E+00
  1.73550793911E+00  1.76467565049E+00  1.79433356407E+00  1.82448991834E+00
  1.85515309026E+00  1.88633159758E+00  1.91803410119E+00  1.95026940756E+00
  1.98304647113E+00  2.01637439686E+00  2.05026244272E+00  2.08472002228E+00
  2.11975670731E+00  2.15538223044E+00  2.19160648788E+00  2.22843954216E+00
  2.26589162491E+00  2.30397313975E+00  2.34269466511E+00  2.38206695721E+00
  2.42210095306E+00  2.46280777347E+00  2.50419872616E+00  2.54628530887E+00
  2.58907921260E+00  2.63259232481E+00  2.67683673276E+00  2.72182472685E+00
  2.76756880403E+00  2.81408167128E+00  2.86137624915E+00  2.90946567532E+00
  2.95836330828E+00  3.00808273100E+00  3.05863775478E+00  3.11004242298E+00
  3.16231101503E+00  3.21545805030E+00  3.26949829220E+00  3.32444675226E+00
  3.38031869430E+00  3.43712963866E+00  3.49489536651E+00  3.55363192427E+00
  3.61335562803E+00  3.67408306809E+00  3.73583111356E+00  3.79861691709E+00
  3.86245791958E+00  3.92737185505E+00  3.99337675556E+00  4.06049095624E+00
  4.12873310035E+00  4.19812214447E+00  4.26867736380E+00  4.34041835746E+00
  4.41336505396E+00  4.48753771674E+00  4.56295694979E+00  4.63964370340E+00
  4.71761927992E+00  4.79690533974E+00  4.87752390728E+00  4.95949737710E+00
  5.04284852013E+00  5.12760049002E+00  5.21377682951E+00  5.30140147703E+00
  5.39049877334E+00  5.48109346823E+00  5.57321072751E+00  5.66687613987E+00
  5.76211572411E+00  5.85895593626E+00  5.95742367701E+00  6.05754629914E+00
  6.15935161514E+00  6.26286790492E+00  6.36812392366E+00  6.47514890983E+00
  6.58397259328E+00  6.69462520350E+00  6.80713747805E+00  6.92154067106E+00
  7.03786656192E+00  7.15614746415E+00  7.27641623429E+00  7.39870628112E+00
  7.52305157488E+00  7.64948665672E+00  7.77804664833E+00  7.90876726163E+00
  8.04168480874E+00  8.17683621207E+00  8.31425901453E+00  8.45399139001E+00
  8.59607215396E+00  8.74054077417E+00  8.88743738175E+00  9.03680278224E+00
  9.18867846700E+00  9.34310662470E+00  9.50013015303E+00  9.65979267066E+00
  9.82213852932E+00  9.98721282611E+00  1.01550614161E+01  1.03257309249E+01
  1.04992687619E+01  1.06757231331E+01  1.08551430547E+01  1.10375783668E+01
  1.12230797471E+01  1.14116987249E+01  1.16034876955E+01  1.17984999349E+01
  1.19967896144E+01  1.21984118158E+01  1.24034225465E+01  1.26118787553E+01
  1.28238383481E+01  1.30393602037E+01  1.32585041909E+01  1.34813311843E+01
  1.37079030818E+01  1.39382828215E+01  1.41725343992E+01  1.44107228863E+01
  1.46529144478E+01  1.48991763607E+01  1.51495770326E+01  1.54041860210E+01
  1.56630740522E+01  1.59263130411E+01  1.61939761115E+01  1.64661376159E+01
  1.67428731564E+01  1.70242596059E+01  1.73103751289E+01  1.76012992040E+01
  1.78971126453E+01  1.81978976249E+01  1.85037376963E+01  1.88147178170E+01
  1.91309243723E+01  1.94524451994E+01  1.97793696118E+01  2.01117884239E+01
  2.04497939764E+01  2.07934801619E+01  2.11429424509E+01  2.14982779187E+01
  2.18595852717E+01  2.22269648754E+01  2.26005187822E+01  2.29803507593E+01
  2.33665663181E+01  2.37592727432E+01  2.41585791222E+01  2.45645963762E+01
  2.49774372903E+01  2.53972165451E+01  2.58240507489E+01  2.62580584692E+01
  2.66993602667E+01  2.71480787280E+01  2.76043385001E+01  2.80682663246E+01
  2.85399910733E+01  2.90196437841E+01  2.95073576968E+01  3.00032682907E+01
  3.05075133218E+01  3.10202328615E+01  3.15415693352E+01  3.20716675619E+01
  3.26106747946E+01  3.31587407608E+01  3.37160177048E+01  3.42826604293E+01
  3.48588263385E+01  3.54446754824E+01  3.60403706006E+01  3.66460771677E+01
  3.72619634395E+01  3.78882004995E+01  3.85249623064E+01  3.91724257426E+01
  3.98307706632E+01  4.05001799461E+01  4.11808395425E+01  4.18729385290E+01
  4.25766691598E+01  4.32922269200E+01  4.40198105803E+01  4.47596222520E+01
  4.55118674431E+01  4.62767551154E+01  4.70544977427E+01  4.78453113695E+01
  4.86494156714E+01  4.94670340158E+01  5.02983935243E+01  5.11437251353E+01
  5.20032636687E+01  5.28772478906E+01  5.37659205801E+01  5.46695285965E+01
  5.55883229477E+01  5.65225588604E+01  5.74724958504E+01  5.84383977954E+01
  5.94205330075E+01  6.04191743086E+01  6.14345991052E+01  6.24670894665E+01
  6.35169322019E+01  6.45844189412E+01  6.56698462153E+01  6.67735155387E+01
  6.78957334935E+01  6.90368118140E+01  7.01970674737E+01  7.13768227734E+01
  7.25764054304E+01  7.37961486699E+01  7.50363913172E+01  7.62974778923E+01
  7.75797587049E+01  7.88835899526E+01  8.02093338190E+01  8.15573585747E+01
  8.29280386799E+01  8.43217548879E+01  8.57388943508E+01  8.71798507278E+01
  8.86450242937E+01  9.01348220507E+01  9.16496578409E+01  9.31899524620E+01
  9.47561337833E+01  9.63486368653E+01  9.79679040803E+01  9.96143852351E+01
  1.01288537696E+02  1.02990826517E+02  1.04721724565E+02  1.06481712659E+02
  1.08271279693E+02  1.10090922783E+02  1.11941147395E+02  1.13822467494E+02
  1.15735405679E+02  1.17680493336E+02  1.19658270779E+02  1.21669287402E+02
  1.23714101836E+02  1.25793282096E+02  1.27907405747E+02  1.30057060058E+02
  1.32242842170E+02  1.34465359259E+02  1.36725228704E+02  1.39023078261E+02
  1.41359546237E+02  1.43735281666E+02  1.46150944489E+02  1.48607205740E+02
  1.51104747729E+02
  </PP_R>
  <PP_RAB>
  1.89975409491E-07  1.93168198988E-07  1.96414647560E-07  1.99715657020E-07
  2.03072144335E-07  2.06485041885E-07  2.09955297718E-07  2.13483875818E-07
  2.17071756367E-07  2.20719936022E-07  2.24429428190E-07  2.28201263309E-07
  2.32036489134E-07  2.35936171032E-07  2.39901392273E-07  2.43933254331E-07
  2.48032877196E-07  2.52201399677E-07  2.56439979724E-07  2.60749794747E-07
  2.65132041946E-07  2.69587938639E-07  2.74118722604E-07  2.78725652421E-07
  2.83410007822E-07  2.88173090049E-07  2.93016222209E-07  2.97940749647E-07
  3.02948040322E-07  3.08039485177E-07  3.13216498537E-07  3.18480518494E-07
  3.23833007309E-07  3.29275451820E-07  3.34809363851E-07  3.40436280637E-07
  3.46157765245E-07  3.51975407013E-07  3.57890821991E-07  3.63905653388E-07
  3.70021572028E-07  3.76240276818E-07  3.82563495214E-07  3.88992983709E-07
  3.95530528311E-07  4.02177945047E-07  4.08937080466E-07  4.15809812147E-07
  4.22798049228E-07  4.29903732930E-07  4.37128837100E-07  4.44475368758E-07
  4.51945368654E-07  4.59540911836E-07  4.67264108226E-07  4.75117103207E-07
  4.83102078215E-07  4.91221251352E-07  4.99476877995E-07  5.07871251427E-07
  5.16406703472E-07  5.25085605144E-07  5.33910367306E-07  5.42883441335E-07
  5.52007319811E-07  5.61284537204E-07  5.70717670577E-07  5.80309340306E-07
  5.90062210805E-07  5.99978991268E-07  6.10062436420E-07  6.20315347283E-07
  6.30740571953E-07  6.41341006394E-07  6.52119595237E-07  6.63079332606E-07
  6.74223262942E-07  6.85554481853E-07  6.97076136973E-07  7.08791428836E-07
  7.20703611763E-07  7.32815994773E-07  7.45131942494E-07  7.57654876101E-07
  7.70388274267E-07  7.83335674130E-07  7.96500672273E-07  8.09886925724E-07
  8.23498152973E-07  8.37338135005E-07  8.51410716347E-07  8.65719806140E-07
  8.80269379224E-07  8.95063477240E-07  9.10106209755E-07  9.25401755403E-07
  9.40954363044E-07  9.56768352948E-07  9.72848117991E-07  9.89198124877E-07
  1.00582291538E-06  1.02272710761E-06  1.03991539727E-06  1.05739255901E-06
  1.07516344771E-06  1.09323299983E-06  1.11160623481E-06  1.13028825646E-06
  1.14928425433E-06  1.16859950521E-06  1.18823937458E-06  1.20820931809E-06
  1.22851488307E-06  1.24916171008E-06  1.27015553448E-06  1.29150218804E-06
  1.31320760050E-06  1.33527780130E-06  1.35771892119E-06  1.38053719395E-06
  1.40373895814E-06  1.42733065885E-06  1.45131884947E-06  1.47571019355E-06
  1.50051146662E-06  1.52572955808E-06  1.55137147311E-06  1.57744433464E-06
  1.60395538529E-06  1.63091198942E-06  1.65832163515E-06  1.68619193643E-06
  1.71453063521E-06  1.74334560353E-06  1.77264484572E-06  1.80243650065E-06
  1.83272884398E-06  1.86353029044E-06  1.89484939619E-06  1.92669486117E-06
  1.95907553156E-06  1.99200040220E-06  2.02547861909E-06  2.05951948195E-06
  2.09413244680E-06  2.12932712857E-06  2.16511330380E-06  2.20150091330E-06
  2.23850006500E-06  2.27612103666E-06  2.31437427880E-06  2.35327041757E-06
  2.39282025769E-06  2.43303478550E-06  2.47392517195E-06  2.51550277574E-06
  2.55777914647E-06  2.60076602786E-06  2.64447536098E-06  2.68891928760E-06
  2.73411015353E-06  2.78006051208E-06  2.82678312754E-06  2.87429097871E-06
  2.92259726253E-06  2.97171539771E-06  3.02165902850E-06  3.07244202844E-06
  3.12407850427E-06  3.17658279976E-06  3.22996949979E-06  3.28425343434E-06
  3.33944968263E-06  3.39557357731E-06  3.45264070870E-06  3.51066692916E-06
  3.56966835744E-06  3.62966138323E-06  3.69066267162E-06  3.75268916783E-06
  3.81575810182E-06  3.87988699315E-06  3.94509365582E-06  4.01139620321E-06
  4.07881305311E-06  4.14736293286E-06  4.21706488454E-06  4.28793827025E-06
  4.36000277750E-06  4.43327842466E-06  4.50778556656E-06  4.58354490010E-06
  4.66057747003E-06  4.73890467479E-06  4.81854827242E-06  4.89953038667E-06
  4.98187351308E-06  5.06560052529E-06  5.15073468132E-06  5.23729963011E-06
  5.32531941802E-06  5.41481849557E-06  5.50582172419E-06  5.59835438314E-06
  5.69244217652E-06  5.78811124044E-06  5.88538815026E-06  5.98429992797E-06
  6.08487404969E-06  6.18713845332E-06  6.29112154632E-06  6.39685221352E-06
  6.50435982526E-06  6.61367424543E-06  6.72482583987E-06  6.83784548472E-06
  6.95276457507E-06  7.06961503361E-06  7.18842931957E-06  7.30924043768E-06
  7.43208194734E-06  7.55698797201E-06  7.68399320859E-06  7.81313293714E-06
  7.94444303063E-06  8.07795996494E-06  8.21372082896E-06  8.35176333491E-06
  8.49212582883E-06  8.63484730119E-06  8.77996739777E-06  8.92752643063E-06
  9.07756538936E-06  9.23012595240E-06  9.38525049866E-06  9.54298211930E-06
  9.70336462966E-06  9.86644258149E-06  1.00322612752E-05  1.02008667728E-05
  1.03723059100E-05  1.05466263100E-05  1.07238763962E-05  1.09041054059E-05
  1.10873634039E-05  1.12737012964E-05  1.14631708451E-05  1.16558246816E-05
  1.18517163221E-05  1.20509001823E-05  1.22534315922E-05  1.24593668119E-05
  1.26687630469E-05  1.28816784643E-05  1.30981722085E-05  1.33183044181E-05
  1.35421362423E-05  1.37697298581E-05  1.40011484874E-05  1.42364564147E-05
  1.44757190048E-05  1.47190027209E-05  1.49663751436E-05  1.52179049890E-05
  1.54736621280E-05  1.57337176060E-05  1.59981436623E-05  1.62670137502E-05
  1.65404025577E-05  1.68183860278E-05  1.71010413800E-05  1.73884471314E-05
  1.76806831188E-05  1.79778305207E-05  1.82799718801E-05  1.85871911269E-05
  1.88995736020E-05  1.92172060801E-05  1.95401767946E-05  1.98685754616E-05
  2.02024933051E-05  2.05420230822E-05  2.08872591089E-05  2.12382972864E-05
  2.15952351274E-05  2.19581717837E-05  2.23272080734E-05  2.27024465089E-05
  2.30839913255E-05  2.34719485103E-05  2.38664258318E-05  2.42675328695E-05
  2.46753810445E-05  2.50900836508E-05  2.55117558860E-05  2.59405148842E-05
  2.63764797477E-05  2.68197715808E-05  2.72705135229E-05  2.77288307829E-05
  2.81948506743E-05  2.86687026499E-05  2.91505183384E-05  2.96404315805E-05
  3.01385784665E-05  3.06450973735E-05  3.11601290047E-05  3.16838164276E-05
  3.22163051144E-05  3.27577429820E-05  3.33082804333E-05  3.38680703988E-05
  3.44372683795E-05  3.50160324895E-05  3.56045235003E-05  3.62029048855E-05
  3.68113428660E-05  3.74300064561E-05  3.80590675110E-05  3.86987007738E-05
  3.93490839245E-05  4.00103976293E-05  4.06828255908E-05  4.13665545987E-05
  4.20617745822E-05  4.27686786625E-05  4.34874632063E-05  4.42183278806E-05
  4.49614757081E-05  4.57171131235E-05  4.64854500309E-05  4.72666998623E-05
  4.80610796365E-05  4.88688100195E-05  4.96901153863E-05  5.05252238824E-05
  5.13743674878E-05  5.22377820812E-05  5.31157075055E-05  5.40083876346E-05
  5.49160704408E-05  5.58390080641E-05  5.67774568821E-05  5.77316775809E-05
  5.87019352281E-05  5.96884993459E-05  6.06916439861E-05  6.17116478067E-05
  6.27487941484E-05  6.38033711142E-05  6.48756716489E-05  6.59659936206E-05
  6.70746399037E-05  6.82019184624E-05  6.93481424371E-05  7.05136302306E-05
  7.16987055970E-05  7.29036977315E-05  7.41289413619E-05  7.53747768417E-05
  7.66415502441E-05  7.79296134588E-05  7.92393242894E-05  8.05710465530E-05
  8.19251501810E-05  8.33020113218E-05  8.47020124460E-05  8.61255424515E-05
  8.75729967726E-05  8.90447774893E-05  9.05412934390E-05  9.20629603301E-05
  9.36102008578E-05  9.51834448209E-05  9.67831292419E-05  9.84096984877E-05
  1.00063604394E-04  1.01745306389E-04  1.03455271623E-04  1.05193975098E-04
  1.06961899798E-04  1.08759536825E-04  1.10587385534E-04  1.12445953672E-04
  1.14335757520E-04  1.16257322035E-04  1.18211180999E-04  1.20197877163E-04
  1.22217962398E-04  1.24271997853E-04  1.26360554107E-04  1.28484211327E-04
  1.30643559432E-04  1.32839198255E-04  1.35071737709E-04  1.37341797958E-04
  1.39650009591E-04  1.41997013790E-04  1.44383462518E-04  1.46810018691E-04
  1.49277356370E-04  1.51786160940E-04  1.54337129309E-04  1.56930970095E-04
  1.59568403826E-04  1.62250163140E-04  1.64976992987E-04  1.67749650837E-04
  1.70568906891E-04  1.73435544294E-04  1.76350359352E-04  1.79314161755E-04
  1.82327774801E-04  1.85392035623E-04  1.88507795424E-04  1.91675919714E-04
  1.94897288548E-04  1.98172796771E-04  2.01503354267E-04  2.04889886213E-04
  2.08333333333E-04  2.11834652164E-04  2.15394815315E-04  2.19014811745E-04
  2.22695647031E-04  2.26438343650E-04  2.30243941266E-04  2.34113497012E-04
  2.38048085791E-04  2.42048800568E-04  2.46116752680E-04  2.50253072139E-04
  2.54458907950E-04  2.58735428427E-04  2.63083821520E-04  2.67505295143E-04
  2.72001077514E-04  2.76572417488E-04  2.81220584912E-04  2.85946870973E-04
  2.90752588560E-04  2.95639072624E-04  3.00607680553E-04  3.05659792549E-04
  3.10796812009E-04  3.16020165914E-04  3.21331305231E-04  3.26731705310E-04
  3.32222866298E-04  3.37806313550E-04  3.43483598063E-04  3.49256296894E-04
  3.55126013609E-04  3.61094378722E-04  3.67163050152E-04  3.73333713678E-04
  3.79608083415E-04  3.85987902282E-04  3.92474942493E-04  3.99071006045E-04
  4.05777925220E-04  4.12597563094E-04  4.19531814056E-04  4.26582604331E-04
  4.33751892516E-04  4.41041670128E-04  4.48453962150E-04  4.55990827601E-04
  4.63654360103E-04  4.71446688464E-04  4.79369977269E-04  4.87426427485E-04
  4.95618277064E-04  5.03947801574E-04  5.12417314824E-04  5.21029169513E-04
  5.29785757877E-04  5.38689512357E-04  5.47742906278E-04  5.56948454527E-04
  5.66308714262E-04  5.75826285615E-04  5.85503812416E-04  5.95343982930E-04
  6.05349530600E-04  6.15523234811E-04  6.25867921656E-04  6.36386464725E-04
  6.47081785905E-04  6.57956856185E-04  6.69014696490E-04  6.80258378513E-04
  6.91691025570E-04  7.03315813471E-04  7.15135971398E-04  7.27154782805E-04
  7.39375586326E-04  7.51801776710E-04  7.64436805754E-04  7.77284183271E-04