<PP_INFO>
Generated using Vanderbilt code, version   7  3  6                              
Author: kfg        Generation date:   22    9   15                              
Automatically converted from original format                                    
    1        The Pseudo was generated with a Scalar-Relativistic Calculation
  2.40000000000E+00    Local Potential cutoff radius
nl pn  l   occ               Rcut            Rcut US             E pseu
5S  5  0  1.50      0.00000000000      1.80000000000     -1.41529120600
4D  4  2 10.00      0.00000000000      1.65000000000     -2.29190959000
5P  5  1  0.00      0.00000000000      2.00000000000     -0.89609542200
</PP_INFO>


<PP_HEADER>
   0                   Version Number
  In                   Element
   US                  Ultrasoft pseudopotential
    T                  Nonlinear Core Correction
SLA  PW   PSX  PSC     PBEsol  Exchange-Correlation functional
   13.00000000000      Z valence
 -131.95835679100      Total energy
    0.00000    0.00000 Suggested cutoff for wfc and rho
    2                  Max angular momentum component
  889                  Number of points in mesh
    3    6             Number of Wavefunctions, Number of Projectors
 Wavefunctions         nl  l   occ
                       5S  0  1.50
                       4D  2 10.00
                       5P  1  0.00
</PP_HEADER>


<PP_MESH>
  <PP_R>
  0.00000000000E+00  1.16776553801E-09  2.36509320137E-09  3.59273135882E-09
  4.85144732420E-09  6.14202783594E-09  7.46527954888E-09  8.82202953842E-09
  1.02131258175E-08  1.16394378665E-08  1.31018571769E-08  1.46012978085E-08
  1.61386969603E-08  1.77150155570E-08  1.93312388489E-08  2.09883770283E-08
  2.26874658604E-08  2.44295673310E-08  2.62157703104E-08  2.80471912335E-08
  2.99249747979E-08  3.18502946796E-08  3.38243542662E-08  3.58483874091E-08
  3.79236591950E-08  4.00514667363E-08  4.22331399819E-08  4.44700425487E-08
  4.67635725735E-08  4.91151635874E-08  5.15262854112E-08  5.39984450746E-08
  5.65331877578E-08  5.91320977575E-08  6.17967994771E-08  6.45289584419E-08
  6.73302823402E-08  7.02025220906E-08  7.31474729364E-08  7.61669755679E-08
  7.92629172724E-08  8.24372331143E-08  8.56919071443E-08  8.90289736396E-08
  9.24505183755E-08  9.59586799287E-08  9.95556510145E-08  1.03243679857E-07
  1.07025071594E-07  1.10902189718E-07  1.14877457555E-07  1.18953359777E-07
  1.23132443955E-07  1.27417322152E-07  1.31810672557E-07  1.36315241157E-07
  1.40933843454E-07  1.45669366225E-07  1.50524769326E-07  1.55503087542E-07
  1.60607432483E-07  1.65840994531E-07  1.71207044834E-07  1.76708937346E-07
  1.82350110931E-07  1.88134091505E-07  1.94064494244E-07  2.00145025843E-07
  2.06379486833E-07  2.12771773954E-07  2.19325882594E-07  2.26045909284E-07
  2.32936054259E-07  2.40000624085E-07  2.47244034348E-07  2.54670812414E-07
  2.62285600263E-07  2.70093157383E-07  2.78098363753E-07  2.86306222887E-07
  2.94721864965E-07  3.03350550035E-07  3.12197671309E-07  3.21268758523E-07
  3.30569481404E-07  3.40105653206E-07  3.49883234345E-07  3.59908336130E-07
  3.70187224575E-07  3.80726324320E-07  3.91532222645E-07  4.02611673589E-07
  4.13971602168E-07  4.25619108709E-07  4.37561473281E-07  4.49806160252E-07
  4.62360822949E-07  4.75233308446E-07  4.88431662465E-07  5.01964134406E-07
  5.15839182505E-07  5.30065479120E-07  5.44651916148E-07  5.59607610587E-07
  5.74941910233E-07  5.90664399523E-07  6.06784905525E-07  6.23313504078E-07
  6.40260526097E-07  6.57636564020E-07  6.75452478437E-07  6.93719404876E-07
  7.12448760758E-07  7.31652252542E-07  7.51341883035E-07  7.71529958897E-07
  7.92229098333E-07  8.13452238978E-07  8.35212645987E-07  8.57523920322E-07
  8.80400007255E-07  9.03855205087E-07  9.27904174078E-07  9.52561945618E-07
  9.77843931616E-07  1.00376593414E-06  1.03034415528E-06  1.05759520729E-06
  1.08553612296E-06  1.11418436629E-06  1.14355784334E-06  1.17367491351E-06
  1.20455440094E-06  1.23621560632E-06  1.26867831893E-06  1.30196282901E-06
  1.33608994049E-06  1.37108098390E-06  1.40695782979E-06  1.44374290237E-06
  1.48145919348E-06  1.52013027706E-06  1.55978032377E-06  1.60043411620E-06
  1.64211706428E-06  1.68485522121E-06  1.72867529974E-06  1.77360468884E-06
  1.81967147084E-06  1.86690443898E-06  1.91533311540E-06  1.96498776959E-06
  2.01589943735E-06  2.06809994011E-06  2.12162190489E-06  2.17649878465E-06
  2.23276487925E-06  2.29045535681E-06  2.34960627576E-06  2.41025460735E-06
  2.47243825877E-06  2.53619609682E-06  2.60156797222E-06  2.66859474453E-06
  2.73731830765E-06  2.80778161606E-06  2.88002871162E-06  2.95410475111E-06
  3.03005603446E-06  3.10793003371E-06  3.18777542263E-06  3.26964210719E-06
  3.35358125675E-06  3.43964533599E-06  3.52788813777E-06  3.61836481671E-06
  3.71113192369E-06  3.80624744115E-06  3.90377081941E-06  4.00376301374E-06
  4.10628652252E-06  4.21140542629E-06  4.31918542777E-06  4.42969389298E-06
  4.54299989330E-06  4.65917424868E-06  4.77828957187E-06  4.90042031382E-06
  5.02564281022E-06  5.15403532922E-06  5.28567812030E-06  5.42065346451E-06
  5.55904572582E-06  5.70094140391E-06  5.84642918819E-06  5.99560001326E-06
  6.14854711575E-06  6.30536609258E-06  6.46615496070E-06  6.63101421840E-06
  6.80004690807E-06  6.97335868066E-06  7.15105786166E-06  7.33325551884E-06
  7.52006553168E-06  7.71160466250E-06  7.90799262951E-06  8.10935218157E-06
  8.31580917496E-06  8.52749265202E-06  8.74453492181E-06  8.96707164282E-06
  9.19524190775E-06  9.42918833044E-06  9.66905713501E-06  9.91499824727E-06
  1.01671653884E-05  1.04257161712E-05  1.06908121981E-05  1.09626191630E-05
  1.12413069539E-05  1.15270497598E-05  1.18200261793E-05  1.21204193322E-05
  1.24284169739E-05  1.27442116131E-05  1.30680006316E-05  1.33999864081E-05
  1.37403764446E-05  1.40893834959E-05  1.44472257028E-05  1.48141267282E-05
  1.51903158973E-05  1.55760283406E-05  1.59715051409E-05  1.63769934840E-05
  1.67927468134E-05  1.72190249885E-05  1.76560944469E-05  1.81042283714E-05
  1.85637068602E-05  1.90348171022E-05  1.95178535569E-05  2.00131181376E-05
  2.05209204008E-05  2.10415777396E-05  2.15754155816E-05  2.21227675930E-05
  2.26839758865E-05  2.32593912356E-05  2.38493732936E-05  2.44542908185E-05
  2.50745219034E-05  2.57104542130E-05  2.63624852257E-05  2.70310224820E-05
  2.77164838396E-05  2.84192977341E-05  2.91399034470E-05  2.98787513803E-05
  3.06363033382E-05  3.14130328151E-05  3.22094252924E-05  3.30259785413E-05
  3.38632029340E-05  3.47216217632E-05  3.56017715685E-05  3.65042024721E-05
  3.74294785229E-05  3.83781780484E-05  3.93508940167E-05  4.03482344071E-05
  4.13708225896E-05  4.24192977152E-05  4.34943151149E-05  4.45965467097E-05
  4.57266814302E-05  4.68854256473E-05  4.80735036139E-05  4.92916579175E-05
  5.05406499441E-05  5.18212603543E-05  5.31342895715E-05  5.44805582815E-05
  5.58609079462E-05  5.72762013289E-05  5.87273230343E-05  6.02151800605E-05
  6.17407023667E-05  6.33048434539E-05  6.49085809613E-05  6.65529172769E-05
  6.82388801646E-05  6.99675234059E-05  7.17399274593E-05  7.35572001349E-05
  7.54204772873E-05  7.73309235253E-05  7.92897329402E-05  8.12981298515E-05
  8.33573695726E-05  8.54687391955E-05  8.76335583948E-05  8.98531802531E-05
  9.21289921062E-05  9.44624164107E-05  9.68549116327E-05  9.93079731596E-05
  1.01823134235E-04  1.04401966916E-04  1.07046083057E-04  1.09757135316E-04
  1.12536818191E-04  1.15386869072E-04  1.18309069335E-04  1.21305245450E-04
  1.24377270125E-04  1.27527063474E-04  1.30756594221E-04  1.34067880929E-04
  1.37462993259E-04  1.40944053266E-04  1.44513236727E-04  1.48172774498E-04
  1.51924953909E-04  1.55772120193E-04  1.59716677955E-04  1.63761092673E-04
  1.67907892237E-04  1.72159668532E-04  1.76519079055E-04  1.80988848582E-04
  1.85571770863E-04  1.90270710374E-04  1.95088604105E-04  2.00028463396E-04
  2.05093375821E-04  2.10286507114E-04  2.15611103152E-04  2.21070491980E-04
  2.26668085895E-04  2.32407383574E-04  2.38291972265E-04  2.44325530029E-04
  2.50511828034E-04  2.56854732919E-04  2.63358209206E-04  2.70026321778E-04
  2.76863238424E-04  2.83873232439E-04  2.91060685298E-04  2.98430089392E-04
  3.05986050838E-04  3.13733292359E-04  3.21676656234E-04  3.29821107322E-04
  3.38171736170E-04  3.46733762195E-04  3.55512536941E-04  3.64513547427E-04
  3.73742419578E-04  3.83204921740E-04  3.92906968285E-04  4.02854623308E-04
  4.13054104416E-04  4.23511786618E-04  4.34234206306E-04  4.45228065340E-04
  4.56500235240E-04  4.68057761480E-04  4.79907867890E-04  4.92057961172E-04
  5.04515635529E-04  5.17288677415E-04  5.30385070395E-04  5.43813000142E-04
  5.57580859549E-04  5.71697253976E-04  5.86171006629E-04  6.01011164076E-04
  6.16227001896E-04  6.31828030485E-04  6.47824000993E-04  6.64224911422E-04
  6.81041012876E-04  6.98282815964E-04  7.15961097376E-04  7.34086906613E-04
  7.52671572895E-04  7.71726712243E-04  7.91264234741E-04  8.11296351976E-04
  8.31835584673E-04  8.52894770521E-04  8.74487072197E-04  8.96625985592E-04
  9.19325348248E-04  9.42599348006E-04  9.66462531872E-04  9.90929815114E-04
  1.01601649058E-03  1.04173823826E-03  1.06811113508E-03  1.09515166497E-03
  1.12287672912E-03  1.15130365662E-03  1.18045021521E-03  1.21033462245E-03
  1.24097555706E-03  1.27239217062E-03  1.30460409954E-03  1.33763147732E-03
  1.37149494715E-03  1.40621567480E-03  1.44181536186E-03  1.47831625928E-03
  1.51574118133E-03  1.55411351978E-03  1.59345725861E-03  1.63379698892E-03
  1.67515792438E-03  1.71756591690E-03  1.76104747286E-03  1.80562976965E-03
  1.85134067265E-03  1.89820875268E-03  1.94626330380E-03  1.99553436167E-03
  2.04605272231E-03  2.09784996134E-03  2.15095845372E-03  2.20541139399E-03
  2.26124281700E-03  2.31848761921E-03  2.37718158049E-03  2.43736138648E-03
  2.49906465150E-03  2.56232994212E-03  2.62719680119E-03  2.69370577262E-03
  2.76189842668E-03  2.83181738599E-03  2.90350635219E-03  2.97701013320E-03
  3.05237467129E-03  3.12964707175E-03  3.20887563233E-03  3.29010987348E-03
  3.37340056923E-03  3.45879977898E-03  3.54636088002E-03  3.63613860089E-03
  3.72818905558E-03  3.82256977862E-03  3.91933976105E-03  4.01855948724E-03
  4.12029097276E-03  4.22459780310E-03  4.33154517342E-03  4.44119992930E-03
  4.55363060855E-03  4.66890748400E-03  4.78710260744E-03  4.90828985467E-03
  5.03254497168E-03  5.15994562195E-03  5.29057143503E-03  5.42450405632E-03
  5.56182719805E-03  5.70262669167E-03  5.84699054144E-03  5.99500897947E-03
  6.14677452210E-03  6.30238202773E-03  6.46192875612E-03  6.62551442916E-03
  6.79324129324E-03  6.96521418309E-03  7.14154058738E-03  7.32233071585E-03
  7.50769756820E-03  7.69775700477E-03  7.89262781888E-03  8.09243181113E-03
  8.29729386553E-03  8.50734202753E-03  8.72270758407E-03  8.94352514562E-03
  9.16993273036E-03  9.40207185040E-03  9.64008760024E-03  9.88412874747E-03
  1.01343478258E-02  1.03909012302E-02  1.06539493149E-02  1.09236564937E-02
  1.12001913421E-02  1.14837267036E-02  1.17744397970E-02  1.20725123273E-02
  1.23781305997E-02  1.26914856354E-02  1.30127732917E-02  1.33421943837E-02
  1.36799548103E-02  1.40262656829E-02  1.43813434569E-02  1.47454100676E-02
  1.51186930684E-02  1.55014257734E-02  1.58938474029E-02  1.62962032333E-02
  1.67087447500E-02  1.71317298049E-02  1.75654227775E-02  1.80100947399E-02
  1.84660236267E-02  1.89334944081E-02  1.94127992688E-02  1.99042377898E-02
  2.04081171361E-02  2.09247522489E-02  2.14544660418E-02  2.19975896032E-02
  2.25544624030E-02  2.31254325048E-02  2.37108567837E-02  2.43111011486E-02
  2.49265407721E-02  2.55575603237E-02  2.62045542114E-02  2.68679268273E-02
  2.75480928010E-02  2.82454772582E-02  2.89605160870E-02  2.96936562100E-02
  3.04453558635E-02  3.12160848844E-02  3.20063250033E-02  3.28165701460E-02
  3.36473267423E-02  3.44991140418E-02  3.53724644396E-02  3.62679238078E-02
  3.71860518380E-02  3.81274223899E-02  3.90926238507E-02  4.00822595029E-02
  4.10969479008E-02  4.21373232579E-02  4.32040358425E-02  4.42977523848E-02
  4.54191564931E-02  4.65689490816E-02  4.77478488081E-02  4.89565925232E-02
  5.01959357312E-02  5.14666530618E-02  5.27695387548E-02  5.41054071562E-02
  5.54750932271E-02  5.68794530660E-02  5.83193644435E-02  5.97957273511E-02
  6.13094645636E-02  6.28615222161E-02  6.44528703951E-02  6.60845037451E-02
  6.77574420899E-02  6.94727310706E-02  7.12314427986E-02  7.30346765260E-02
  7.48835593324E-02  7.67792468300E-02  7.87229238851E-02  8.07158053590E-02
  8.27591368677E-02  8.48541955597E-02  8.70022909151E-02  8.92047655633E-02
  9.14629961226E-02  9.37783940608E-02  9.61524065768E-02  9.85865175057E-02
  1.01082248246E-01  1.03641158711E-01  1.06264848303E-01  1.08954956913E-01
  1.11713165947E-01  1.14541199375E-01  1.17440824810E-01  1.20413854612E-01
  1.23462147022E-01  1.26587607322E-01  1.29792189026E-01  1.33077895102E-01
  1.36446779223E-01  1.39900947052E-01  1.43442557556E-01  1.47073824357E-01
  1.50797017114E-01  1.54614462945E-01  1.58528547877E-01  1.62541718341E-01
  1.66656482699E-01  1.70875412812E-01  1.75201145650E-01  1.79636384936E-01
  1.84183902839E-01  1.88846541706E-01  1.93627215837E-01  1.98528913311E-01
  2.03554697847E-01  2.08707710724E-01  2.13991172743E-01  2.19408386240E-01
  2.24962737149E-01  2.30657697121E-01  2.36496825692E-01  2.42483772506E-01
  2.48622279599E-01  2.54916183740E-01  2.61369418823E-01  2.67986018330E-01
  2.74770117850E-01  2.81725957668E-01  2.88857885409E-01  2.96170358760E-01
  3.03667948256E-01  3.11355340133E-01  3.19237339262E-01  3.27318872150E-01
  3.35604990016E-01  3.44100871954E-01  3.52811828168E-01  3.61743303288E-01
  3.70900879778E-01  3.80290281420E-01  3.89917376896E-01  3.99788183454E-01
  4.09908870671E-01  4.20285764303E-01  4.30925350249E-01  4.41834278596E-01
  4.53019367778E-01  4.64487608841E-01  4.76246169808E-01  4.88302400164E-01
  5.00663835444E-01  5.13338201949E-01  5.26333421569E-01  5.39657616739E-01
  5.53319115517E-01  5.67326456782E-01  5.81688395580E-01  5.96413908590E-01
  6.11512199736E-01  6.26992705942E-01  6.42865103029E-01  6.59139311761E-01
  6.75825504048E-01  6.92934109304E-01  7.10475820965E-01  7.28461603170E-01
  7.46902697619E-01  7.65810630597E-01  7.85197220178E-01  8.05074583610E-01
  8.25455144893E-01  8.46351642541E-01  8.67777137546E-01  8.89745021539E-01
  9.12269025163E-01  9.35363226653E-01  9.59042060638E-01  9.83320327159E-01
  1.00821320092E+00  1.03373624079E+00  1.05990539948E+00  1.08673703358E+00
  1.11424791373E+00  1.14245523513E+00  1.17137662827E+00  1.20103016996E+00
  1.23143439463E+00  1.26260830592E+00  1.29457138853E+00  1.32734362042E+00
  1.36094548532E+00  1.39539798547E+00  1.43072265482E+00  1.46694157244E+00
  1.50407737631E+00  1.54215327754E+00  1.58119307479E+00  1.62122116922E+00
  1.66226257969E+00  1.70434295840E+00  1.74748860698E+00  1.79172649285E+00
  1.83708426613E+00  1.88359027690E+00  1.93127359295E+00  1.98016401789E+00
  2.03029210983E+00  2.08168920046E+00  2.13438741463E+00  2.18841969044E+00
  2.24381979983E+00  2.30062236967E+00  2.35886290341E+00  2.41857780327E+00
  2.47980439303E+00  2.54258094128E+00  2.60694668542E+00  2.67294185613E+00
  2.74060770254E+00  2.80998651801E+00  2.88112166655E+00  2.95405760996E+00
  3.02883993556E+00  3.10551538474E+00  3.18413188216E+00  3.26473856570E+00
  3.34738581713E+00  3.43212529370E+00  3.51900996034E+00  3.60809412278E+00
  3.69943346153E+00  3.79308506665E+00  3.88910747343E+00  3.98756069902E+00
  4.08850627989E+00  4.19200731029E+00  4.29812848176E+00  4.40693612348E+00
  4.51849824375E+00  4.63288457255E+00  4.75016660505E+00  4.87041764633E+00
  4.99371285722E+00  5.12012930124E+00  5.24974599276E+00  5.38264394646E+00
  5.51890622787E+00  5.65861800536E+00  5.80186660334E+00  5.94874155684E+00
  6.09933466748E+00  6.25374006088E+00  6.41205424542E+00  6.57437617262E+00
  6.74080729897E+00  6.91145164934E+00  7.08641588201E+00  7.26580935532E+00
  7.44974419602E+00  7.63833536939E+00  7.83170075104E+00  8.02996120063E+00
  8.23324063740E+00  8.44166611761E+00  8.65536791397E+00  8.87447959706E+00
  9.09913811882E+00  9.32948389813E+00  9.56566090861E+00  9.80781676858E+00
  1.00561028333E+01  1.03106742897E+01  1.05716902532E+01  1.08393138673E+01
  1.11137124054E+01  1.13950573756E+01  1.16835246276E+01  1.19792944629E+01
  1.22825517472E+01  1.25934860262E+01  1.29122916439E+01  1.32391678643E+01
  1.35743189956E+01  1.39179545182E+01  1.42702892154E+01  1.46315433080E+01
  1.50019425915E+01  1.53817185774E+01  1.57711086383E+01  1.61703561554E+01
  1.65797106716E+01  1.69994280467E+01  1.74297706177E+01  1.78710073627E+01
  1.83234140692E+01  1.87872735059E+01  1.92628756002E+01  1.97505176189E+01
  2.02505043540E+01  2.07631483135E+01  2.12887699167E+01  2.18276976942E+01
  2.23802684932E+01  2.29468276887E+01  2.35277293984E+01  2.41233367050E+01
  2.47340218823E+01  2.53601666285E+01  2.60021623043E+01  2.66604101781E+01
  2.73353216762E+01  2.80273186402E+01  2.87368335907E+01  2.94643099977E+01
  3.02102025576E+01  3.09749774776E+01  3.17591127669E+01  3.25630985355E+01
  3.33874373007E+01  3.42326443012E+01  3.50992478187E+01  3.59877895087E+01
  3.68988247387E+01  3.78329229353E+01  3.87906679404E+01  3.97726583757E+01
  4.07795080172E+01  4.18118461788E+01  4.28703181053E+01  4.39555853762E+01
  4.50683263189E+01  4.62092364327E+01  4.73790288235E+01  4.85784346496E+01
  4.98082035789E+01  5.10691042567E+01  5.23619247872E+01  5.36874732253E+01
  5.50465780818E+01  5.64400888416E+01  5.78688764942E+01  5.93338340784E+01
  6.08358772404E+01  6.23759448062E+01  6.39549993679E+01  6.55740278862E+01
  6.72340423066E+01  6.89360801921E+01  7.06812053718E+01  7.24705086058E+01
  7.43051082668E+01  7.61861510393E+01  7.81148126363E+01  8.00922985341E+01
  8.21198447258E+01  8.41987184936E+01  8.63302192014E+01  8.85156791066E+01
  9.07564641926E+01  9.30539750232E+01  9.54096476174E+01  9.78249543472E+01
  1.00301404858E+02  1.02840547012E+02  1.05443967855E+02  1.08113294611E+02
  1.10850195696E+02  1.13656381761E+02  1.16533606765E+02  1.19483669067E+02
  1.22508412551E+02  1.25609727781E+02  1.28789553180E+02  1.32049876242E+02
  1.35392734776E+02  1.38820218176E+02  1.42334468732E+02  1.45937682963E+02
  1.49632112998E+02  1.53420067974E+02  1.57303915487E+02  1.61286083067E+02
  1.65369059700E+02  1.69555397379E+02  1.73847712700E+02  1.78248688501E+02
  1.82761075535E+02  1.87387694191E+02  1.92131436255E+02  1.96995266722E+02
  2.01982225643E+02
  </PP_R>
  <PP_RAB>
  1.15322928928E-09  1.18242342773E-09  1.21235661931E-09  1.24304757325E-09
  1.27451547238E-09  1.30677998517E-09  1.33986127800E-09  1.37378002774E-09
  1.40855743471E-09  1.44421523594E-09  1.48077571870E-09  1.51826173449E-09
  1.55669671328E-09  1.59610467820E-09  1.63651026050E-09  1.67793871498E-09
  1.72041593579E-09  1.76396847255E-09  1.80862354704E-09  1.85440907011E-09
  1.90135365922E-09  1.94948665627E-09  1.99883814593E-09  2.04943897450E-09
  2.10132076915E-09  2.15451595768E-09  2.20905778882E-09  2.26498035299E-09
  2.32231860361E-09  2.38110837896E-09  2.44138642456E-09  2.50319041614E-09
  2.56655898322E-09  2.63153173321E-09  2.69814927620E-09  2.76645325032E-09
  2.83648634778E-09  2.90829234154E-09  2.98191611269E-09  3.05740367847E-09
  3.13480222109E-09  3.21416011713E-09  3.29552696788E-09  3.37895363027E-09
  3.46449224866E-09  3.55219628749E-09  3.64212056464E-09  3.73432128570E-09
  3.82885607912E-09  3.92578403223E-09  4.02516572816E-09  4.12706328370E-09
  4.23154038814E-09  4.33866234307E-09  4.44849610320E-09  4.56111031821E-09
  4.67657537564E-09  4.79496344491E-09  4.91634852243E-09  5.04080647782E-09
  5.16841510134E-09  5.29925415255E-09  5.43340541011E-09  5.57095272293E-09
  5.71198206255E-09  5.85658157689E-09  6.00484164537E-09  6.15685493536E-09
  6.31271646010E-09  6.47252363812E-09  6.63637635412E-09  6.80437702137E-09
  6.97663064576E-09  7.15324489141E-09  7.33433014797E-09  7.51999959964E-09
  7.71036929584E-09  7.90555822386E-09  8.10568838311E-09  8.31088486146E-09
  8.52127591339E-09  8.73699304016E-09  8.95817107199E-09  9.18494825236E-09
  9.41746632438E-09  9.65587061941E-09  9.90031014791E-09  1.01509376925E-08
  1.04079099037E-08  1.06713873973E-08  1.09415348554E-08  1.12185211290E-08
  1.15025193435E-08  1.17937070070E-08  1.20922661213E-08  1.23983832956E-08
  1.27122498630E-08  1.30340620004E-08  1.33640208509E-08  1.37023326494E-08
  1.40492088519E-08  1.44048662673E-08  1.47695271930E-08  1.51434195539E-08
  1.55267770451E-08  1.59198392774E-08  1.63228519274E-08  1.67360668912E-08
  1.71597424417E-08  1.75941433898E-08  1.80395412502E-08  1.84962144112E-08
  1.89644483082E-08  1.94445356028E-08  1.99367763652E-08  2.04414782617E-08
  2.09589567476E-08  2.14895352637E-08  2.20335454389E-08  2.25913272973E-08
  2.31632294707E-08  2.37496094164E-08  2.43508336412E-08  2.49672779297E-08
  2.55993275797E-08  2.62473776427E-08  2.69118331712E-08  2.75931094714E-08
  2.82916323634E-08  2.90078384465E-08  2.97421753729E-08  3.04951021271E-08
  3.12670893129E-08  3.20586194473E-08  3.28701872624E-08  3.37023000146E-08
  3.45554778015E-08  3.54302538868E-08  3.63271750341E-08  3.72468018484E-08
  3.81897091264E-08  3.91564862157E-08  4.01477373836E-08  4.11640821942E-08
  4.22061558962E-08  4.32746098196E-08  4.43701117829E-08  4.54933465103E-08
  4.66450160603E-08  4.78258402637E-08  4.90365571742E-08  5.02779235291E-08
  5.15507152230E-08  5.28557277920E-08  5.41937769115E-08  5.55656989056E-08
  5.69723512705E-08  5.84146132094E-08  5.98933861832E-08  6.14095944731E-08
  6.29641857585E-08  6.45581317097E-08  6.61924285948E-08  6.78680979025E-08
  6.95861869806E-08  7.13477696909E-08  7.31539470797E-08  7.50058480669E-08
  7.69046301508E-08  7.88514801319E-08  8.08476148550E-08  8.28942819691E-08
  8.49927607080E-08  8.71443626890E-08  8.93504327335E-08  9.16123497071E-08
  9.39315273814E-08  9.63094153181E-08  9.87474997745E-08  1.01247304633E-07
  1.03810392352E-07  1.06438364946E-07  1.09132864984E-07  1.11895576614E-07
  1.14728226622E-07  1.17632585506E-07  1.20610468586E-07  1.23663737135E-07
  1.26794299545E-07  1.30004112520E-07  1.33295182297E-07  1.36669565902E-07
  1.40129372435E-07  1.43676764387E-07  1.47313958994E-07  1.51043229621E-07
  1.54866907183E-07  1.58787381604E-07  1.62807103307E-07  1.66928584749E-07
  1.71154401991E-07  1.75487196306E-07  1.79929675831E-07  1.84484617260E-07
  1.89154867581E-07  1.93943345852E-07  1.98853045027E-07  2.03887033828E-07
  2.09048458663E-07  2.14340545590E-07  2.19766602335E-07  2.25330020360E-07
  2.31034276983E-07  2.36882937550E-07  2.42879657664E-07  2.49028185471E-07
  2.55332364000E-07  2.61796133569E-07  2.68423534243E-07  2.75218708364E-07
  2.82185903137E-07  2.89329473285E-07  2.96653883772E-07  3.04163712594E-07
  3.11863653638E-07  3.19758519617E-07  3.27853245079E-07  3.36152889493E-07
  3.44662640405E-07  3.53387816687E-07  3.62333871858E-07  3.71506397495E-07
  3.80911126723E-07  3.90553937805E-07  4.00440857812E-07  4.10578066390E-07
  4.20971899625E-07  4.31628854002E-07  4.42555590463E-07  4.53758938574E-07
  4.65245900793E-07  4.77023656845E-07  4.89099568211E-07  5.01481182729E-07
  5.14176239310E-07  5.27192672779E-07  5.40538618830E-07  5.54222419114E-07
  5.68252626451E-07  5.82638010178E-07  5.97387561628E-07  6.12510499751E-07
  6.28016276874E-07  6.43914584615E-07  6.60215359932E-07  6.76928791340E-07
  6.94065325280E-07  7.11635672641E-07  7.29650815463E-07  7.48122013797E-07
  7.67060812744E-07  7.86479049668E-07  8.06388861600E-07  8.26802692821E-07
  8.47733302640E-07  8.69193773369E-07  8.91197518501E-07  9.13758291092E-07
  9.36890192362E-07  9.60607680499E-07  9.84925579708E-07  1.00985908947E-06
  1.03542379403E-06  1.06163567217E-06  1.08851110716E-06  1.11606689703E-06
  1.14432026504E-06  1.17328887047E-06  1.20299081964E-06  1.23344467723E-06
  1.26466947789E-06  1.29668473815E-06  1.32951046858E-06  1.36316718633E-06
  1.39767592794E-06  1.43305826251E-06  1.46933630515E-06  1.50653273080E-06
  1.54467078846E-06  1.58377431564E-06  1.62386775332E-06  1.66497616121E-06
  1.70712523340E-06  1.75034131444E-06  1.79465141577E-06  1.84008323266E-06
  1.88666516147E-06  1.93442631742E-06  1.98339655279E-06  2.03360647558E-06
  2.08508746860E-06  2.13787170918E-06  2.19199218916E-06  2.24748273562E-06
  2.30437803195E-06  2.36271363956E-06  2.42252602011E-06  2.48385255828E-06
  2.54673158516E-06  2.61120240218E-06  2.67730530570E-06  2.74508161220E-06
  2.81457368406E-06  2.88582495610E-06  2.95887996267E-06  3.03378436555E-06
  3.11058498241E-06  3.18932981614E-06  3.27006808482E-06  3.35285025252E-06
  3.43772806076E-06  3.52475456095E-06  3.61398414748E-06  3.70547259174E-06
  3.79927707700E-06  3.89545623411E-06  3.99407017818E-06  4.09518054612E-06
  4.19885053521E-06  4.30514494258E-06  4.41413020567E-06  4.52587444384E-06
  4.64044750087E-06  4.75792098864E-06  4.87836833191E-06  5.00186481419E-06
  5.12848762481E-06  5.25831590714E-06  5.39143080809E-06  5.52791552879E-06
  5.66785537665E-06  5.81133781863E-06  5.95845253592E-06  6.10929148000E-06
  6.26394893014E-06  6.42252155226E-06  6.58510845943E-06  6.75181127375E-06
  6.92273418990E-06  7.09798404027E-06  7.27767036173E-06  7.46190546408E-06
  7.65080450024E-06  7.84448553828E-06  8.04306963513E-06  8.24668091233E-06
  8.45544663355E-06  8.66949728417E-06  8.88896665280E-06  9.11399191496E-06
  9.34471371874E-06  9.58127627280E-06  9.82382743642E-06  1.00725188120E-05
  1.03275058397E-05  1.05889478947E-05  1.08570083869E-05  1.11318548628E-05
  1.14136591103E-05  1.17025972663E-05  1.19988499265E-05  1.23026022586E-05
  1.26140441175E-05  1.29333701647E-05  1.32607799892E-05  1.35964782328E-05
  1.39406747180E-05  1.42935845787E-05  1.46554283950E-05  1.50264323312E-05
  1.54068282767E-05  1.57968539914E-05  1.61967532541E-05  1.66067760148E-05
  1.70271785512E-05  1.74582236284E-05  1.79001806637E-05  1.83533258946E-05
  1.88179425517E-05  1.92943210354E-05  1.97827590978E-05  2.02835620287E-05
  2.07970428461E-05  2.13235224923E-05  2.18633300342E-05  2.24168028691E-05
  2.29842869355E-05  2.35661369294E-05  2.41627165261E-05  2.47743986071E-05
  2.54015654938E-05  2.60446091858E-05  2.67039316063E-05  2.73799448534E-05
  2.80730714574E-05  2.87837446448E-05  2.95124086096E-05  3.02595187905E-05
  3.10255421557E-05  3.18109574947E-05  3.26162557177E-05  3.34419401623E-05
  3.42885269080E-05  3.51565450993E-05  3.60465372757E-05  3.69590597114E-05
  3.78946827624E-05  3.88539912238E-05  3.98375846945E-05  4.08460779524E-05
  4.18801013387E-05  4.29403011517E-05  4.40273400507E-05  4.51418974705E-05
  4.62846700456E-05  4.74563720463E-05  4.86577358243E-05  4.98895122711E-05
  5.11524712871E-05  5.24474022629E-05  5.37751145724E-05  5.51364380790E-05
  5.65322236543E-05  5.79633437096E-05  5.94306927416E-05  6.09351878912E-05
  6.24777695168E-05  6.40594017822E-05  6.56810732591E-05  6.73437975448E-05
  6.90486138962E-05  7.07965878791E-05  7.25888120339E-05  7.44264065593E-05
  7.63105200115E-05  7.82423300229E-05  8.02230440376E-05  8.22539000662E-05
  8.43361674600E-05  8.64711477038E-05  8.86601752298E-05  9.09046182515E-05
  9.32058796187E-05  9.55653976949E-05  9.79846472555E-05  1.00465140410E-04
  1.03008427548E-04  1.05616098307E-04  1.08289782565E-04  1.11031151462E-04
  1.13841918443E-04  1.16723840329E-04  1.19678718415E-04  1.22708399596E-04
  1.25814777521E-04  1.28999793778E-04  1.32265439105E-04  1.35613754637E-04
  1.39046833181E-04  1.42566820521E-04  1.46175916765E-04  1.49876377716E-04
  1.53670516282E-04  1.57560703922E-04  1.61549372132E-04  1.65639013958E-04
  1.69832185560E-04  1.74131507807E-04  1.78539667914E-04  1.83059421125E-04
  1.87693592434E-04  1.92445078349E-04  1.97316848701E-04  2.02311948508E-04
  2.07433499868E-04  2.12684703918E-04  2.18068842831E-04  2.23589281870E-04
  2.29249471488E-04  2.35052949489E-04  2.41003343235E-04  2.47104371916E-04
  2.53359848873E-04  2.59773683983E-04  2.66349886103E-04  2.73092565571E-04
  2.80005936783E-04  2.87094320820E-04  2.94362148153E-04  3.01813961412E-04
  3.09454418221E-04  3.17288294115E-04  3.25320485521E-04  3.33556012821E-04
  3.42000023488E-04  3.50657795302E-04  3.59534739652E-04  3.68636404919E-04
  3.77968479940E-04  3.87536797564E-04  3.97347338302E-04  4.07406234061E-04
  4.17719771979E-04  4.28294398352E-04  4.39136722666E-04  4.50253521727E-04
  4.61651743896E-04  4.73338513433E-04  4.85321134949E-04  4.97607097974E-04
  5.10204081633E-04  5.23119959451E-04  5.36362804273E-04  5.49940893308E-04
  5.63862713304E-04  5.78136965850E-04  5.92772572821E-04  6.07778681945E-04
  6.23164672531E-04  6.38940161322E-04  6.55115008514E-04  6.71699323912E-04
  6.88703473253E-04  7.06138084684E-04  7.24014055405E-04  7.42342558479E-04
  7.61135049817E-04  7.80403275338E-04  8.00159278311E-04  8.20415406881E-04
  8.41184321786E-04  8.62479004275E-04  8.84312764218E-04  9.06699248426E-04
  9.29652449179E-04  9.53186712976E-04  9.77316749497E-04  1.00205764080E-03
  1.02742485075E-03  1.05343423468E-03  1.08010204929E-03  1.10744496285E-03
  1.13548006556E-03  1.16422488027E-03  1.19369737343E-03  1.22391596631E-03
  1.25489954651E-03  1.28666747977E-03  1.31923962210E-03  1.35263633213E-03
  1.38687848391E-03  1.42198747988E-03  1.45798526432E-03  1.49489433701E-03
  1.53273776732E-03  1.57153920863E-03  1.61132291311E-03  1.65211374686E-03
  1.69393720548E-03  1.73681943000E-03  1.78078722319E-03  1.82586806638E-03
  1.87209013654E-03  1.91948232398E-03  1.96807425036E-03  2.01789628720E-03
  2.06897957492E-03  2.12135604222E-03  2.17505842611E-03  2.23012029231E-03
  2.28657605629E-03  2.34446100475E-03  2.40381131765E-03  2.46466409087E-03
  2.52705735939E-03  2.59103012101E-03  2.65662236081E-03  2.72387507606E-03
  2.79283030190E-03  2.86353113760E-03  2.93602177347E-03  3.01034751853E-03