<PP_INFO>
Generated using Vanderbilt code, version   7  3  6                              
Author: kfg        Generation date:    3    2 2014                              
Automatically converted from original format                                    
    1        The Pseudo was generated with a Scalar-Relativistic Calculation
  2.35417311679E+00    Local Potential cutoff radius
nl pn  l   occ               Rcut            Rcut US             E pseu
5P  5  1  6.00      0.00000000000      1.62000000000     -4.04049883700
6S  6  0  0.00      0.00000000000      2.55000000000     -0.62649988700
5D  5  2  8.50      0.00000000000      1.65000000000     -0.61469194200
6P  6  1  0.00      0.00000000000      1.62000000000     -0.24236437800
</PP_INFO>


<PP_HEADER>
   0                   Version Number
  Ir                   Element
   US                  Ultrasoft pseudopotential
    T                  Nonlinear Core Correction
SLA  PW   PSX  PSC     PBEsol  Exchange-Correlation functional
   15.00000000000      Z valence
 -180.68343340000      Total energy
    0.00000    0.00000 Suggested cutoff for wfc and rho
    2                  Max angular momentum component
  983                  Number of points in mesh
    4    7             Number of Wavefunctions, Number of Projectors
 Wavefunctions         nl  l   occ
                       5P  1  6.00
                       6S  0  0.00
                       5D  2  8.50
                       6P  1  0.00
</PP_HEADER>


<PP_MESH>
  <PP_R>
  0.00000000000E+00  1.99031033589E-07  4.01407048486E-07  6.07184261552E-07
  8.16419834446E-07  1.02917188951E-06  1.24549952590E-06  1.46546283601E-06
  1.68912292219E-06  1.91654191368E-06  2.14778298387E-06  2.38291036788E-06
  2.62198938039E-06  2.86508643378E-06  3.11226905656E-06  3.36360591216E-06
  3.61916681800E-06  3.87902276486E-06  4.14324593661E-06  4.41190973028E-06
  4.68508877643E-06  4.96285895989E-06  5.24529744082E-06  5.53248267617E-06
  5.82449444147E-06  6.12141385298E-06  6.42332339021E-06  6.73030691887E-06
  7.04244971414E-06  7.35983848436E-06  7.68256139510E-06  8.01070809371E-06
  8.34436973415E-06  8.68363900236E-06  9.02861014198E-06  9.37937898054E-06
  9.73604295610E-06  1.00987011443E-05  1.04674542858E-05  1.08424048144E-05
  1.12236568855E-05  1.16113164048E-05  1.20054910581E-05  1.24062903409E-05
  1.28138255888E-05  1.32282100087E-05  1.36495587102E-05  1.40779887371E-05
  1.45136191005E-05  1.49565708118E-05  1.54069669159E-05  1.58649325258E-05
  1.63305948569E-05  1.68040832631E-05  1.72855292718E-05  1.77750666213E-05
  1.82728312971E-05  1.87789615706E-05  1.92935980366E-05  1.98168836532E-05
  2.03489637807E-05  2.08899862226E-05  2.14401012664E-05  2.19994617254E-05
  2.25682229810E-05  2.31465430263E-05  2.37345825093E-05  2.43325047781E-05
  2.49404759261E-05  2.55586648381E-05  2.61872432372E-05  2.68263857325E-05
  2.74762698678E-05  2.81370761706E-05  2.88089882024E-05  2.94921926098E-05
  3.01868791762E-05  3.08932408746E-05  3.16114739210E-05  3.23417778293E-05
  3.30843554664E-05  3.38394131085E-05  3.46071604989E-05  3.53878109056E-05
  3.61815811809E-05  3.69886918217E-05  3.78093670306E-05  3.86438347782E-05
  3.94923268665E-05  4.03550789931E-05  4.12323308170E-05  4.21243260249E-05
  4.30313123990E-05  4.39535418857E-05  4.48912706659E-05  4.58447592257E-05
  4.68142724293E-05  4.78000795922E-05  4.88024545559E-05  4.98216757644E-05
  5.08580263413E-05  5.19117941683E-05  5.29832719657E-05  5.40727573728E-05
  5.51805530317E-05  5.63069666705E-05  5.74523111890E-05  5.86169047459E-05
  5.98010708468E-05  6.10051384345E-05  6.22294419799E-05  6.34743215752E-05
  6.47401230282E-05  6.60271979586E-05  6.73359038956E-05  6.86666043769E-05
  7.00196690502E-05  7.13954737753E-05  7.27944007293E-05  7.42168385118E-05
  7.56631822536E-05  7.71338337263E-05  7.86292014534E-05  8.01497008246E-05
  8.16957542107E-05  8.32677910807E-05  8.48662481217E-05  8.64915693599E-05
  8.81442062837E-05  8.98246179698E-05  9.15332712098E-05  9.32706406406E-05
  9.50372088762E-05  9.68334666411E-05  9.86599129075E-05  1.00517055033E-04
  1.02405408903E-04  1.04325499072E-04  1.06277858911E-04  1.08263030754E-04
  1.10281566051E-04  1.12334025519E-04  1.14420979299E-04  1.16543007114E-04
  1.18700698430E-04  1.20894652618E-04  1.23125479125E-04  1.25393797640E-04
  1.27700238265E-04  1.30045441694E-04  1.32430059386E-04  1.34854753750E-04
  1.37320198330E-04  1.39827077985E-04  1.42376089088E-04  1.44967939714E-04
  1.47603349838E-04  1.50283051535E-04  1.53007789184E-04  1.55778319674E-04
  1.58595412615E-04  1.61459850551E-04  1.64372429177E-04  1.67333957562E-04
  1.70345258371E-04  1.73407168097E-04  1.76520537289E-04  1.79686230792E-04
  1.82905127986E-04  1.86178123030E-04  1.89506125110E-04  1.92890058692E-04
  1.96330863780E-04  1.99829496176E-04  2.03386927743E-04  2.07004146680E-04
  2.10682157794E-04  2.14421982778E-04  2.18224660497E-04  2.22091247273E-04
  2.26022817184E-04  2.30020462358E-04  2.34085293278E-04  2.38218439089E-04
  2.42421047914E-04  2.46694287171E-04  2.51039343899E-04  2.55457425086E-04
  2.59949758006E-04  2.64517590556E-04  2.69162191610E-04  2.73884851363E-04
  2.78686881696E-04  2.83569616538E-04  2.88534412235E-04  2.93582647928E-04
  2.98715725938E-04  3.03935072154E-04  3.09242136426E-04  3.14638392973E-04
  3.20125340792E-04  3.25704504068E-04  3.31377432605E-04  3.37145702253E-04
  3.43010915347E-04  3.48974701150E-04  3.55038716308E-04  3.61204645308E-04
  3.67474200947E-04  3.73849124810E-04  3.80331187750E-04  3.86922190381E-04
  3.93623963580E-04  4.00438368994E-04  4.07367299556E-04  4.14412680014E-04
  4.21576467465E-04  4.28860651893E-04  4.36267256732E-04  4.43798339419E-04
  4.51455991970E-04  4.59242341560E-04  4.67159551113E-04  4.75209819905E-04
  4.83395384175E-04  4.91718517742E-04  5.00181532642E-04  5.08786779767E-04
  5.17536649517E-04  5.26433572469E-04  5.35480020048E-04  5.44678505214E-04
  5.54031583161E-04  5.63541852025E-04  5.73211953610E-04  5.83044574118E-04
  5.93042444894E-04  6.03208343189E-04  6.13545092930E-04  6.24055565503E-04
  6.34742680549E-04  6.45609406783E-04  6.56658762807E-04  6.67893817959E-04
  6.79317693161E-04  6.90933561783E-04  7.02744650531E-04  7.14754240338E-04
  7.26965667280E-04  7.39382323497E-04  7.52007658141E-04  7.64845178331E-04
  7.77898450125E-04  7.91171099519E-04  8.04666813443E-04  8.18389340794E-04
  8.32342493474E-04  8.46530147447E-04  8.60956243821E-04  8.75624789936E-04
  8.90539860484E-04  9.05705598635E-04  9.21126217192E-04  9.36805999759E-04
  9.52749301932E-04  9.68960552509E-04  9.85444254720E-04  1.00220498748E-03
  1.01924740664E-03  1.03657624634E-03  1.05419632024E-03  1.07211252292E-03
  1.09032983123E-03  1.10885330563E-03  1.12768809167E-03  1.14683942135E-03
  1.16631261460E-03  1.18611308076E-03  1.20624632011E-03  1.22671792532E-03
  1.24753358310E-03  1.26869907570E-03  1.29022028256E-03  1.31210318194E-03
  1.33435385255E-03  1.35697847528E-03  1.37998333489E-03  1.40337482178E-03
  1.42715943372E-03  1.45134377772E-03  1.47593457178E-03  1.50093864686E-03
  1.52636294868E-03  1.55221453972E-03  1.57850060114E-03  1.60522843479E-03
  1.63240546524E-03  1.66003924185E-03  1.68813744083E-03  1.71670786744E-03
  1.74575845807E-03  1.77529728252E-03  1.80533254622E-03  1.83587259248E-03
  1.86692590485E-03  1.89850110945E-03  1.93060697736E-03  1.96325242711E-03
  1.99644652706E-03  2.03019849803E-03  2.06451771577E-03  2.09941371362E-03
  2.13489618514E-03  2.17097498680E-03  2.20766014073E-03  2.24496183747E-03
  2.28289043884E-03  2.32145648083E-03  2.36067067646E-03  2.40054391881E-03
  2.44108728405E-03  2.48231203448E-03  2.52422962169E-03  2.56685168972E-03
  2.61019007830E-03  2.65425682616E-03  2.69906417434E-03  2.74462456963E-03
  2.79095066796E-03  2.83805533801E-03  2.88595166471E-03  2.93465295290E-03
  2.98417273103E-03  3.03452475491E-03  3.08572301154E-03  3.13778172299E-03
  3.19071535034E-03  3.24453859772E-03  3.29926641638E-03  3.35491400884E-03
  3.41149683312E-03  3.46903060704E-03  3.52753131258E-03  3.58701520030E-03
  3.64749879389E-03  3.70899889474E-03  3.77153258660E-03  3.83511724034E-03
  3.89977051879E-03  3.96551038159E-03  4.03235509025E-03  4.10032321316E-03
  4.16943363081E-03  4.23970554096E-03  4.31115846406E-03  4.38381224859E-03
  4.45768707662E-03  4.53280346942E-03  4.60918229314E-03  4.68684476460E-03
  4.76581245722E-03  4.84610730697E-03  4.92775161849E-03  5.01076807129E-03
  5.09517972601E-03  5.18101003090E-03  5.26828282825E-03  5.35702236106E-03
  5.44725327978E-03  5.53900064913E-03  5.63228995508E-03  5.72714711193E-03
  5.82359846950E-03  5.92167082045E-03  6.02139140773E-03  6.12278793215E-03
  6.22588856006E-03  6.33072193118E-03  6.43731716657E-03  6.54570387671E-03
  6.65591216970E-03  6.76797265968E-03  6.88191647528E-03  6.99777526829E-03
  7.11558122245E-03  7.23536706240E-03  7.35716606275E-03  7.48101205734E-03
  7.60693944863E-03  7.73498321727E-03  7.86517893178E-03  7.99756275849E-03
  8.13217147153E-03  8.26904246307E-03  8.40821375371E-03  8.54972400305E-03
  8.69361252039E-03  8.83991927569E-03  8.98868491066E-03  9.13995075004E-03
  9.29375881309E-03  9.45015182527E-03  9.60917323008E-03  9.77086720116E-03
  9.93527865453E-03  1.01024532611E-02  1.02724374594E-02  1.04452784682E-02
  1.06210243002E-02  1.07997237746E-02  1.09814265315E-02  1.11661830449E-02
  1.13540446374E-02  1.15450634938E-02  1.17392926762E-02  1.19367861385E-02
  1.21375987411E-02  1.23417862667E-02  1.25494054353E-02  1.27605139202E-02
  1.29751703641E-02  1.31934343951E-02  1.34153666435E-02  1.36410287586E-02
  1.38704834257E-02  1.41037943838E-02  1.43410264430E-02  1.45822455025E-02
  1.48275185692E-02  1.50769137761E-02  1.53305004013E-02  1.55883488871E-02
  1.58505308597E-02  1.61171191491E-02  1.63881878095E-02  1.66638121392E-02
  1.69440687026E-02  1.72290353503E-02  1.75187912417E-02  1.78134168663E-02
  1.81129940665E-02  1.84176060601E-02  1.87273374635E-02  1.90422743152E-02
  1.93625040997E-02  1.96881157717E-02  2.00191997811E-02  2.03558480977E-02
  2.06981542372E-02  2.10462132867E-02  2.14001219316E-02  2.17599784821E-02
  2.21258829007E-02  2.24979368299E-02  2.28762436203E-02  2.32609083596E-02
  2.36520379016E-02  2.40497408959E-02  2.44541278182E-02  2.48653110006E-02
  2.52834046635E-02  2.57085249466E-02  2.61407899416E-02  2.65803197250E-02
  2.70272363911E-02  2.74816640863E-02  2.79437290436E-02  2.84135596171E-02
  2.88912863185E-02  2.93770418527E-02  2.98709611549E-02  3.03731814281E-02
  3.08838421811E-02  3.14030852674E-02  3.19310549246E-02  3.24678978142E-02
  3.30137630629E-02  3.35688023033E-02  3.41331697165E-02  3.47070220749E-02
  3.52905187856E-02  3.58838219349E-02  3.64870963329E-02  3.71005095597E-02
  3.77242320119E-02  3.83584369497E-02  3.90033005452E-02  3.96590019314E-02
  4.03257232516E-02  4.10036497107E-02  4.16929696258E-02  4.23938744792E-02
  4.31065589711E-02  4.38312210740E-02  4.45680620876E-02  4.53172866948E-02
  4.60791030182E-02  4.68537226785E-02  4.76413608526E-02  4.84422363342E-02
  4.92565715937E-02  5.00845928407E-02  5.09265300862E-02  5.17826172073E-02
  5.26530920114E-02  5.35381963027E-02  5.44381759490E-02  5.53532809507E-02
  5.62837655093E-02  5.72298880989E-02  5.81919115373E-02  5.91701030594E-02
  6.01647343915E-02  6.11760818263E-02  6.22044263002E-02  6.32500534712E-02
  6.43132537978E-02  6.53943226204E-02  6.64935602427E-02  6.76112720158E-02
  6.87477684221E-02  6.99033651626E-02  7.10783832437E-02  7.22731490668E-02
  7.34879945191E-02  7.47232570655E-02  7.59792798423E-02  7.72564117528E-02
  7.85550075643E-02  7.98754280059E-02  8.12180398698E-02  8.25832161122E-02
  8.39713359575E-02  8.53827850036E-02  8.68179553287E-02  8.82772456005E-02
  8.97610611867E-02  9.12698142678E-02  9.28039239518E-02  9.43638163899E-02
  9.59499248957E-02  9.75626900650E-02  9.92025598987E-02  1.00869989927E-01
  1.02565443334E-01  1.04289391092E-01  1.06042312086E-01  1.07824693249E-01
  1.09637029698E-01  1.11479824873E-01  1.13353590672E-01  1.15258847598E-01
  1.17196124902E-01  1.19165960728E-01  1.21168902266E-01  1.23205505901E-01
  1.25276337370E-01  1.27381971916E-01  1.29522994453E-01  1.31699999721E-01
  1.33913592459E-01  1.36164387568E-01  1.38453010284E-01  1.40780096349E-01
  1.43146292191E-01  1.45552255102E-01  1.47998653420E-01  1.50486166718E-01
  1.53015485985E-01  1.55587313828E-01  1.58202364659E-01  1.60861364898E-01
  1.63565053174E-01  1.66314180529E-01  1.69109510625E-01  1.71951819964E-01
  1.74841898091E-01  1.77780547827E-01  1.80768585481E-01  1.83806841083E-01
  1.86896158613E-01  1.90037396233E-01  1.93231426531E-01  1.96479136758E-01
  1.99781429075E-01  2.03139220808E-01  2.06553444698E-01  2.10025049163E-01
  2.13554998560E-01  2.17144273453E-01  2.20793870885E-01  2.24504804657E-01
  2.28278105609E-01  2.32114821902E-01  2.36016019318E-01  2.39982781546E-01
  2.44016210491E-01  2.48117426575E-01  2.52287569052E-01  2.56527796320E-01
  2.60839286250E-01  2.65223236503E-01  2.69680864873E-01  2.74213409618E-01
  2.78822129807E-01  2.83508305671E-01  2.88273238954E-01  2.93118253281E-01
  2.98044694519E-01  3.03053931156E-01  3.08147354678E-01  3.13326379960E-01
  3.18592445651E-01  3.23947014582E-01  3.29391574168E-01  3.34927636821E-01
  3.40556740372E-01  3.46280448497E-01  3.52100351152E-01  3.58018065013E-01
  3.64035233929E-01  3.70153529374E-01  3.76374650913E-01  3.82700326677E-01
  3.89132313837E-01  3.95672399098E-01  4.02322399193E-01  4.09084161387E-01
  4.15959563990E-01  4.22950516881E-01  4.30058962035E-01  4.37286874068E-01
  4.44636260778E-01  4.52109163710E-01  4.59707658717E-01  4.67433856541E-01
  4.75289903399E-01  4.83277981576E-01  4.91400310033E-01  4.99659145027E-01
  5.08056780730E-01  5.16595549873E-01  5.25277824391E-01  5.34106016083E-01
  5.43082577282E-01  5.52210001534E-01  5.61490824293E-01  5.70927623626E-01
  5.80523020926E-01  5.90279681644E-01  6.00200316025E-01  6.10287679865E-01
  6.20544575275E-01  6.30973851457E-01  6.41578405501E-01  6.52361183183E-01
  6.63325179790E-01  6.74473440946E-01  6.85809063463E-01  6.97335196196E-01
  7.09055040924E-01  7.20971853235E-01  7.33088943431E-01  7.45409677448E-01
  7.57937477791E-01  7.70675824486E-01  7.83628256044E-01  7.96798370446E-01
  8.10189826142E-01  8.23806343067E-01  8.37651703674E-01  8.51729753985E-01
  8.66044404662E-01  8.80599632087E-01  8.95399479473E-01  9.10448057983E-01
  9.25749547876E-01  9.41308199664E-01  9.57128335294E-01  9.73214349350E-01
  9.89570710273E-01  1.00620196160E+00  1.02311272323E+00  1.04030769271E+00
  1.05779164653E+00  1.07556944145E+00  1.09364601587E+00  1.11202639117E+00
  1.13071567313E+00  1.14971905334E+00  1.16904181063E+00  1.18868931257E+00
  1.20866701691E+00  1.22898047316E+00  1.24963532406E+00  1.27063730721E+00
  1.29199225662E+00  1.31370610438E+00  1.33578488223E+00  1.35823472331E+00
  1.38106186385E+00  1.40427264485E+00  1.42787351390E+00  1.45187102695E+00
  1.47627185014E+00  1.50108276163E+00  1.52631065349E+00  1.55196253363E+00
  1.57804552775E+00  1.60456688129E+00  1.63153396145E+00  1.65895425927E+00
  1.68683539168E+00  1.71518510361E+00  1.74401127017E+00  1.77332189880E+00
  1.80312513155E+00  1.83342924727E+00  1.86424266397E+00  1.89557394113E+00
  1.92743178209E+00  1.95982503644E+00  1.99276270254E+00  2.02625392993E+00
  2.06030802195E+00  2.09493443830E+00  2.13014279764E+00  2.16594288029E+00
  2.20234463097E+00  2.23935816149E+00  2.27699375364E+00  2.31526186198E+00
  2.35417311679E+00  2.39373832701E+00  2.43396848323E+00  2.47487476074E+00
  2.51646852266E+00  2.55876132309E+00  2.60176491030E+00  2.64549123000E+00
  2.68995242867E+00  2.73516085694E+00  2.78112907300E+00  2.82786984608E+00
  2.87539616003E+00  2.92372121692E+00  2.97285844068E+00  3.02282148085E+00
  3.07362421639E+00  3.12528075949E+00  3.17780545951E+00  3.23121290700E+00
  3.28551793769E+00  3.34073563667E+00  3.39688134255E+00  3.45397065170E+00
  3.51201942265E+00  3.57104378042E+00  3.63106012105E+00  3.69208511613E+00
  3.75413571744E+00  3.81722916165E+00  3.88138297513E+00  3.94661497880E+00
  4.01294329307E+00  4.08038634291E+00  4.14896286292E+00  4.21869190258E+00
  4.28959283153E+00  4.36168534491E+00  4.43498946889E+00  4.50952556619E+00
  4.58531434177E+00  4.66237684856E+00  4.74073449329E+00  4.82040904249E+00
  4.90142262849E+00  4.98379775557E+00  5.06755730626E+00  5.15272454763E+00
  5.23932313780E+00  5.32737713249E+00  5.41691099170E+00  5.50794958653E+00
  5.60051820606E+00  5.69464256440E+00  5.79034880780E+00  5.88766352195E+00
  5.98661373933E+00  6.08722694676E+00  6.18953109299E+00  6.29355459651E+00
  6.39932635339E+00  6.50687574537E+00  6.61623264796E+00  6.72742743878E+00
  6.84049100600E+00  6.95545475688E+00  7.07235062654E+00  7.19121108681E+00
  7.31206915525E+00  7.43495840431E+00  7.55991297069E+00  7.68696756480E+00
  7.81615748039E+00  7.94751860439E+00  8.08108742684E+00  8.21690105104E+00
  8.35499720389E+00  8.49541424630E+00  8.63819118393E+00  8.78336767794E+00
  8.93098405607E+00  9.08108132382E+00  9.23370117584E+00  9.38888600752E+00
  9.54667892675E+00  9.70712376592E+00  9.87026509406E+00  1.00361482293E+01
  1.02048192512E+01  1.03763250141E+01  1.05507131596E+01  1.07280321298E+01
  1.09083311812E+01  1.10916603980E+01  1.12780707062E+01  1.14676138876E+01
  1.16603425944E+01  1.18563103635E+01  1.20555716316E+01  1.22581817505E+01
  1.24641970020E+01  1.26736746138E+01  1.28866727756E+01  1.31032506549E+01
  1.33234684136E+01  1.35473872247E+01  1.37750692893E+01  1.40065778539E+01
  1.42419772279E+01  1.44813328016E+01  1.47247110641E+01  1.49721796221E+01
  1.52238072185E+01  1.54796637513E+01  1.57398202936E+01  1.60043491128E+01
  1.62733236906E+01  1.65468187440E+01  1.68249102457E+01  1.71076754451E+01
  1.73951928898E+01  1.76875424476E+01  1.79848053288E+01  1.82870641081E+01
  1.85944027483E+01  1.89069066233E+01  1.92246625416E+01  1.95477587709E+01
  1.98762850621E+01  2.02103326747E+01  2.05499944019E+01  2.08953645963E+01
  2.12465391963E+01  2.16036157526E+01  2.19666934555E+01  2.23358731623E+01
  2.27112574251E+01  2.30929505199E+01  2.34810584750E+01  2.38756891006E+01
  2.42769520188E+01  2.46849586943E+01  2.50998224647E+01  2.55216585727E+01
  2.59505841977E+01  2.63867184885E+01  2.68301825962E+01  2.72810997083E+01
  2.77395950823E+01  2.82057960811E+01  2.86798322079E+01  2.91618351424E+01
  2.96519387775E+01  3.01502792562E+01  3.06569950097E+01  3.11722267955E+01
  3.16961177369E+01  3.22288133626E+01  3.27704616470E+01  3.33212130513E+01
  3.38812205658E+01  3.44506397515E+01  3.50296287842E+01  3.56183484979E+01
  3.62169624296E+01  3.68256368648E+01  3.74445408837E+01  3.80738464080E+01
  3.87137282488E+01  3.93643641553E+01  4.00259348638E+01  4.06986241481E+01
  4.13826188709E+01  4.20781090349E+01  4.27852878364E+01  4.35043517185E+01
  4.42355004257E+01  4.49789370597E+01  4.57348681354E+01  4.65035036385E+01
  4.72850570838E+01  4.80797455745E+01  4.88877898625E+01  4.97094144098E+01
  5.05448474508E+01  5.13943210554E+01  5.22580711940E+01  5.31363378029E+01
  5.40293648506E+01  5.49374004058E+01  5.58606967066E+01  5.67995102301E+01
  5.77541017639E+01  5.87247364783E+01  5.97116840004E+01  6.07152184887E+01
  6.17356187091E+01  6.27731681128E+01  6.38281549145E+01  6.49008721730E+01
  6.59916178721E+01  6.71006950038E+01  6.82284116522E+01  6.93750810792E+01
  7.05410218114E+01  7.17265577288E+01  7.29320181545E+01  7.41577379464E+01
  7.54040575900E+01  7.66713232934E+01  7.79598870828E+01  7.92701069011E+01
  8.06023467064E+01  8.19569765741E+01  8.33343727989E+01  8.47349179997E+01
  8.61590012259E+01  8.76070180653E+01  8.90793707541E+01  9.05764682886E+01
  9.20987265389E+01  9.36465683643E+01  9.52204237308E+01  9.68207298306E+01
  9.84479312034E+01  1.00102479860E+02  1.01784835408E+02  1.03495465179E+02
  1.05234844360E+02  1.07003456121E+02  1.08801791756E+02  1.10630350814E+02
  1.12489641240E+02  1.14380179514E+02  1.16302490800E+02  1.18257109084E+02
  1.20244577329E+02  1.22265447622E+02  1.24320281328E+02  1.26409649249E+02
  1.28534131777E+02  1.30694319061E+02  1.32890811166E+02  1.35124218243E+02
  1.37395160697E+02  1.39704269360E+02  1.42052185666E+02  1.44439561829E+02
  1.46867061025E+02  1.49335357575E+02  1.51845137132E+02
  </PP_R>
  <PP_RAB>
  1.97377048821E-07  2.00694232714E-07  2.04067166296E-07  2.07496786514E-07
  2.10984046062E-07  2.14529913646E-07  2.18135374253E-07  2.21801429422E-07
  2.25529097525E-07  2.29319414049E-07  2.33173431886E-07  2.37092221619E-07
  2.41076871828E-07  2.45128489384E-07  2.49248199764E-07  2.53437147357E-07
  2.57696495788E-07  2.62027428236E-07  2.66431147765E-07  2.70908877659E-07
  2.75461861762E-07  2.80091364819E-07  2.84798672835E-07  2.89585093424E-07
  2.94451956179E-07  2.99400613038E-07  3.04432438658E-07  3.09548830803E-07
  3.14751210724E-07  3.20041023561E-07  3.25419738740E-07  3.30888850383E-07
  3.36449877724E-07  3.42104365527E-07  3.47853884521E-07  3.53700031830E-07
  3.59644431423E-07  3.65688734559E-07  3.71834620251E-07  3.78083795728E-07
  3.84437996912E-07  3.90898988901E-07  3.97468566456E-07  4.04148554502E-07
  4.10940808635E-07  4.17847215634E-07  4.24869693991E-07  4.32010194439E-07
  4.39270700497E-07  4.46653229018E-07  4.54159830753E-07  4.61792590917E-07
  4.69553629770E-07  4.77445103206E-07  4.85469203352E-07  4.93628159176E-07
  5.01924237107E-07  5.10359741665E-07  5.18937016099E-07  5.27658443041E-07
  5.36526445166E-07  5.45543485864E-07  5.54712069928E-07  5.64034744244E-07
  5.73514098505E-07  5.83152765926E-07  5.92953423976E-07  6.02918795123E-07
  6.13051647590E-07  6.23354796123E-07  6.33831102774E-07  6.44483477697E-07
  6.55314879951E-07  6.66328318331E-07  6.77526852195E-07  6.88913592318E-07
  7.00491701758E-07  7.12264396731E-07  7.24234947505E-07  7.36406679310E-07
  7.48782973261E-07  7.61367267297E-07  7.74163057136E-07  7.87173897248E-07
  8.00403401836E-07  8.13855245850E-07  8.27533165998E-07  8.41440961791E-07
  8.55582496596E-07  8.69961698706E-07  8.84582562438E-07  8.99449149236E-07
  9.14565588804E-07  9.29936080249E-07  9.45564893252E-07  9.61456369250E-07
  9.77614922643E-07  9.94045042024E-07  1.01075129142E-06  1.02773831156E-06
  1.04501082118E-06  1.06257361829E-06  1.08043158158E-06  1.09858967170E-06
  1.11705293268E-06  1.13582649333E-06  1.15491556864E-06  1.17432546125E-06
  1.19406156294E-06  1.21412935606E-06  1.23453441515E-06  1.25528240841E-06
  1.27637909929E-06  1.29783034813E-06  1.31964211375E-06  1.34182045510E-06
  1.36437153299E-06  1.38730161174E-06  1.41061706098E-06  1.43432435735E-06
  1.45843008638E-06  1.48294094426E-06  1.50786373971E-06  1.53320539590E-06
  1.55897295233E-06  1.58517356683E-06  1.61181451752E-06  1.63890320482E-06
  1.66644715355E-06  1.69445401498E-06  1.72293156898E-06  1.75188772617E-06
  1.78133053009E-06  1.81126815951E-06  1.84170893061E-06  1.87266129938E-06
  1.90413386388E-06  1.93613536669E-06  1.96867469734E-06  2.00176089472E-06
  2.03540314967E-06  2.06961080748E-06  2.10439337048E-06  2.13976050073E-06
  2.17572202265E-06  2.21228792579E-06  2.24946836758E-06  2.28727367616E-06
  2.32571435324E-06  2.36480107705E-06  2.40454470525E-06  2.44495627799E-06
  2.48604702098E-06  2.52782834857E-06  2.57031186696E-06  2.61350937739E-06
  2.65743287945E-06  2.70209457440E-06  2.74750686856E-06  2.79368237673E-06
  2.84063392574E-06  2.88837455801E-06  2.93691753511E-06  2.98627634152E-06
  3.03646468834E-06  3.08749651710E-06  3.13938600363E-06  3.19214756202E-06
  3.24579584859E-06  3.30034576599E-06  3.35581246732E-06  3.41221136036E-06
  3.46955811183E-06  3.52786865175E-06  3.58715917787E-06  3.64744616016E-06
  3.70874634540E-06  3.77107676180E-06  3.83445472377E-06  3.89889783670E-06
  3.96442400189E-06  4.03105142146E-06  4.09879860345E-06  4.16768436697E-06
  4.23772784738E-06  4.30894850167E-06  4.38136611381E-06  4.45500080026E-06
  4.52987301558E-06  4.60600355809E-06  4.68341357565E-06  4.76212457154E-06
  4.84215841043E-06  4.92353732445E-06  5.00628391940E-06  5.09042118095E-06
  5.17597248113E-06  5.26296158471E-06  5.35141265592E-06  5.44135026505E-06
  5.53279939535E-06  5.62578544995E-06  5.72033425890E-06  5.81647208638E-06
  5.91422563794E-06  6.01362206799E-06  6.11468898729E-06  6.21745447061E-06
  6.32194706461E-06  6.42819579566E-06  6.53623017799E-06  6.64608022184E-06
  6.75777644182E-06  6.87134986538E-06  6.98683204142E-06  7.10425504906E-06
  7.22365150656E-06  7.34505458038E-06  7.46849799436E-06  7.59401603914E-06
  7.72164358166E-06  7.85141607481E-06  7.98336956737E-06  8.11754071391E-06
  8.25396678507E-06  8.39268567786E-06  8.53373592619E-06  8.67715671160E-06
  8.82298787411E-06  8.97126992331E-06  9.12204404963E-06  9.27535213572E-06
  9.43123676816E-06  9.58974124924E-06  9.75090960900E-06  9.91478661745E-06
  1.00814177971E-05  1.02508494353E-05  1.04231285977E-05  1.05983031405E-05
  1.07764217246E-05  1.09575338285E-05  1.11416897623E-05  1.13289406815E-05
  1.15193386015E-05  1.17129364119E-05  1.19097878910E-05  1.21099477211E-05
  1.23134715035E-05  1.25204157738E-05  1.27308380178E-05  1.29447966877E-05
  1.31623512176E-05  1.33835620408E-05  1.36084906062E-05  1.38371993954E-05
  1.40697519401E-05  1.43062128396E-05  1.45466477792E-05  1.47911235478E-05
  1.50397080569E-05  1.52924703594E-05  1.55494806687E-05  1.58108103781E-05
  1.60765320810E-05  1.63467195906E-05  1.66214479608E-05  1.69007935067E-05
  1.71848338262E-05  1.74736478211E-05  1.77673157195E-05  1.80659190975E-05
  1.83695409026E-05  1.86782654761E-05  1.89921785767E-05  1.93113674046E-05
  1.96359206254E-05  1.99659283949E-05  2.03014823840E-05  2.06426758042E-05
  2.09896034339E-05  2.13423616438E-05  2.17010484248E-05  2.20657634144E-05
  2.24366079246E-05  2.28136849701E-05  2.31970992970E-05  2.35869574118E-05
  2.39833676109E-05  2.43864400107E-05  2.47962865785E-05  2.52130211631E-05
  2.56367595268E-05  2.60676193774E-05  2.65057204011E-05  2.69511842953E-05
  2.74041348028E-05  2.78646977463E-05  2.83330010627E-05  2.88091748394E-05
  2.92933513499E-05  2.97856650908E-05  3.02862528191E-05  3.07952535902E-05
  3.13128087963E-05  3.18390622063E-05  3.23741600049E-05  3.29182508339E-05
  3.34714858332E-05  3.40340186826E-05  3.46060056450E-05  3.51876056092E-05
  3.57789801345E-05  3.63802934956E-05  3.69917127276E-05  3.76134076733E-05
  3.82455510296E-05  3.88883183960E-05  3.95418883231E-05  4.02064423624E-05
  4.08821651164E-05  4.15692442902E-05  4.22678707437E-05  4.29782385441E-05
  4.37005450205E-05  4.44349908182E-05  4.51817799546E-05  4.59411198759E-05
  4.67132215149E-05  4.74982993491E-05  4.82965714607E-05  4.91082595972E-05
  4.99335892327E-05  5.07727896307E-05  5.16260939079E-05  5.24937390986E-05
  5.33759662211E-05  5.42730203441E-05  5.51851506551E-05  5.61126105294E-05
  5.70556576008E-05  5.80145538329E-05  5.89895655918E-05  5.99809637205E-05
  6.09890236136E-05  6.20140252944E-05  6.30562534921E-05  6.41159977212E-05
  6.51935523619E-05  6.62892167420E-05  6.74032952196E-05  6.85360972682E-05
  6.96879375623E-05  7.08591360649E-05  7.20500181165E-05  7.32609145253E-05
  7.44921616592E-05  7.57441015392E-05  7.70170819345E-05  7.83114564589E-05
  7.96275846691E-05  8.09658321650E-05  8.23265706903E-05  8.37101782369E-05
  8.51170391490E-05  8.65475442305E-05  8.80020908529E-05  8.94810830665E-05
  9.09849317118E-05  9.25140545344E-05  9.40688763002E-05  9.56498289144E-05
  9.72573515405E-05  9.88918907230E-05  1.00553900511E-04  1.02243842585E-04
  1.03962186383E-04  1.05709409235E-04  1.07485996492E-04  1.09292441661E-04
  1.11129246544E-04  1.12996921377E-04  1.14895984970E-04  1.16826964854E-04
  1.18790397423E-04  1.20786828089E-04  1.22816811428E-04  1.24880911338E-04
  1.26979701193E-04  1.29113764003E-04  1.31283692578E-04  1.33490089690E-04
  1.35733568241E-04  1.38014751433E-04  1.40334272944E-04  1.42692777100E-04
  1.45090919055E-04  1.47529364977E-04  1.50008792227E-04  1.52529889550E-04
  1.55093357267E-04  1.57699907470E-04  1.60350264217E-04  1.63045163735E-04
  1.65785354624E-04  1.68571598067E-04  1.71404668038E-04  1.74285351519E-04
  1.77214448718E-04  1.80192773293E-04  1.83221152574E-04  1.86300427798E-04
  1.89431454338E-04  1.92615101945E-04  1.95852254986E-04  1.99143812690E-04
  2.02490689401E-04  2.05893814827E-04  2.09354134303E-04  2.12872609052E-04
  2.16450216450E-04  2.20087950300E-04  2.23786821107E-04  2.27547856358E-04
  2.31372100811E-04  2.35260616779E-04  2.39214484432E-04  2.43234802091E-04
  2.47322686536E-04  2.51479273318E-04  2.55705717070E-04  2.60003191833E-04
  2.64372891377E-04  2.68816029534E-04  2.73333840540E-04  2.77927579370E-04
  2.82598522092E-04  2.87347966221E-04  2.92177231077E-04  2.97087658154E-04
  3.02080611490E-04  3.07157478050E-04  3.12319668107E-04  3.17568615636E-04
  3.22905778710E-04  3.28332639911E-04  3.33850706734E-04  3.39461512011E-04
  3.45166614335E-04  3.50967598494E-04  3.56866075909E-04  3.62863685084E-04
  3.68962092061E-04  3.75162990880E-04  3.81468104054E-04  3.87879183042E-04
  3.94398008743E-04  4.01026391981E-04  4.07766174018E-04  4.14619227059E-04
  4.21587454774E-04  4.28672792825E-04  4.35877209409E-04  4.43202705798E-04
  4.50651316900E-04  4.58225111821E-04  4.65926194441E-04  4.73756704001E-04
  4.81718815691E-04  4.89814741261E-04  4.98046729630E-04  5.06417067516E-04
  5.14928080066E-04  5.23582131505E-04  5.32381625792E-04  5.41329007286E-04
  5.50426761430E-04  5.59677415436E-04  5.69083538990E-04  5.78647744964E-04
  5.88372690143E-04  5.98261075963E-04  6.08315649263E-04  6.18539203044E-04
  6.28934577247E-04  6.39504659544E-04  6.50252386136E-04  6.61180742571E-04
  6.72292764576E-04  6.83591538894E-04  6.95080204146E-04  7.06761951702E-04
  7.18640026566E-04  7.30717728282E-04  7.42998411842E-04  7.55485488628E-04