<PP_INFO>
Generated using Vanderbilt code, version   7  3  6                              
Author: kfg        Generation date:   22    9   15                              
Automatically converted from original format                                    
    1        The Pseudo was generated with a Scalar-Relativistic Calculation
  1.60000000000E+00    Local Potential cutoff radius
nl pn  l   occ               Rcut            Rcut US             E pseu
3S  3  0  2.00      0.00000000000      1.65000000000     -2.79866899100
3P  3  1  6.00      0.00000000000      1.65000000000     -1.58725566100
4S  4  0  0.50      0.00000000000      1.65000000000     -0.30859817100
3D  3  2  0.00      0.00000000000      1.65000000000     -0.1
4P  4  0  0.00      0.00000000000      1.65000000000     -0.1
</PP_INFO>


<PP_HEADER>
   0                   Version Number
  K                    Element
   US                  Ultrasoft pseudopotential
    T                  Nonlinear Core Correction
SLA  PW   PSX  PSC     PBEsol  Exchange-Correlation functional
    9.00000000000      Z valence
  -56.72181876280      Total energy
    0.00000    0.00000 Suggested cutoff for wfc and rho
    2                  Max angular momentum component
  841                  Number of points in mesh
    5    6             Number of Wavefunctions, Number of Projectors
 Wavefunctions         nl  l   occ
                       3S  0  2.00
                       3P  1  6.00
                       4S  0  0.50
                       3D  2  0.00
                       4P  1  0.00
</PP_HEADER>


<PP_MESH>
  <PP_R>
  0.00000000000E+00  3.01160586119E-09  6.09945088773E-09  9.26546508328E-09
  1.25116273098E-08  1.58399665243E-08  1.92525630471E-08  2.27515498623E-08
  2.63391139503E-08  3.00174976557E-08  3.37890000879E-08  3.76559785587E-08
  4.16208500555E-08  4.56860927522E-08  4.98542475577E-08  5.41279197045E-08
  5.85097803767E-08  6.30025683800E-08  6.76090918531E-08  7.23322300231E-08
  7.71749350051E-08  8.21402336474E-08  8.72312294233E-08  9.24511043709E-08
  9.78031210818E-08  1.03290624741E-07  1.08917045216E-07  1.14685899204E-07
  1.20600792426E-07  1.26665421883E-07  1.32883578166E-07  1.39259147824E-07
  1.45796115796E-07  1.52498567901E-07  1.59370693388E-07  1.66416787561E-07
  1.73641254456E-07  1.81048609602E-07  1.88643482836E-07  1.96430621201E-07
  2.04414891913E-07  2.12601285400E-07  2.20994918425E-07  2.29601037281E-07
  2.38425021074E-07  2.47472385079E-07  2.56748784195E-07  2.66260016473E-07
  2.76012026742E-07  2.86010910326E-07  2.96262916854E-07  3.06774454162E-07
  3.17552092304E-07  3.28602567655E-07  3.39932787121E-07  3.51549832458E-07
  3.63460964698E-07  3.75673628687E-07  3.88195457736E-07  4.01034278397E-07
  4.14198115350E-07  4.27695196422E-07  4.41533957729E-07  4.55723048945E-07
  4.70271338716E-07  4.85187920196E-07  5.00482116734E-07  5.16163487701E-07
  5.32241834464E-07  5.48727206512E-07  5.65629907741E-07  5.82960502889E-07
  6.00729824142E-07  6.18948977904E-07  6.37629351739E-07  6.56782621490E-07
  6.76420758572E-07  6.96556037462E-07  7.17201043364E-07  7.38368680078E-07
  7.60072178067E-07  7.82325102723E-07  8.05141362849E-07  8.28535219350E-07
  8.52521294147E-07  8.77114579320E-07  9.02330446470E-07  9.28184656336E-07
  9.54693368642E-07  9.81873152194E-07  1.00974099524E-06  1.03831431610E-06
  1.06761097401E-06  1.09764928035E-06  1.12844801004E-06  1.16002641328E-06
  1.19240422761E-06  1.22560169020E-06  1.25963955057E-06  1.29453908347E-06
  1.33032210225E-06  1.36701097247E-06  1.40462862585E-06  1.44319857467E-06
  1.48274492639E-06  1.52329239877E-06  1.56486633530E-06  1.60749272104E-06
  1.65119819888E-06  1.69601008616E-06  1.74195639176E-06  1.78906583363E-06
  1.83736785669E-06  1.88689265129E-06  1.93767117204E-06  1.98973515716E-06
  2.04311714833E-06  2.09785051105E-06  2.15396945544E-06  2.21150905767E-06
  2.27050528187E-06  2.33099500259E-06  2.39301602789E-06  2.45660712291E-06
  2.52180803417E-06  2.58865951435E-06  2.65720334782E-06  2.72748237669E-06
  2.79954052764E-06  2.87342283937E-06  2.94917549073E-06  3.02684582959E-06
  3.10648240243E-06  3.18813498472E-06  3.27185461197E-06  3.35769361167E-06
  3.44570563599E-06  3.53594569532E-06  3.62847019263E-06  3.72333695873E-06
  3.82060528846E-06  3.92033597767E-06  4.02259136131E-06  4.12743535230E-06
  4.23493348156E-06  4.34515293892E-06  4.45816261513E-06  4.57403314491E-06
  4.69283695112E-06  4.81464829000E-06  4.93954329760E-06  5.06760003738E-06
  5.19889854895E-06  5.33352089818E-06  5.47155122839E-06  5.61307581306E-06
  5.75818310964E-06  5.90696381492E-06  6.05951092169E-06  6.21591977685E-06
  6.37628814104E-06  6.54071624969E-06  6.70930687572E-06  6.88216539378E-06
  7.05939984605E-06  7.24112100985E-06  7.42744246681E-06  7.61848067390E-06
  7.81435503624E-06  8.01518798166E-06  8.22110503730E-06  8.43223490803E-06
  8.64870955688E-06  8.87066428755E-06  9.09823782898E-06  9.33157242204E-06
  9.57081390845E-06  9.81611182192E-06  1.00676194816E-05  1.03254940881E-05
  1.05898968212E-05  1.08609929415E-05  1.11389518927E-05  1.14239474082E-05
  1.17161576196E-05  1.20157651677E-05  1.23229573169E-05  1.26379260725E-05
  1.29608683001E-05  1.32919858490E-05  1.36314856787E-05  1.39795799874E-05
  1.43364863455E-05  1.47024278311E-05  1.50776331695E-05  1.54623368763E-05
  1.58567794038E-05  1.62612072914E-05  1.66758733197E-05  1.71010366685E-05
  1.75369630787E-05  1.79839250185E-05  1.84422018538E-05  1.89120800223E-05
  1.93938532133E-05  1.98878225507E-05  2.03942967814E-05  2.09135924682E-05
  2.14460341880E-05  2.19919547341E-05  2.25516953247E-05  2.31256058157E-05
  2.37140449200E-05  2.43173804311E-05  2.49359894534E-05  2.55702586377E-05
  2.62205844228E-05  2.68873732836E-05  2.75710419847E-05  2.82720178414E-05
  2.89907389864E-05  2.97276546438E-05  3.04832254098E-05  3.12579235409E-05
  3.20522332486E-05  3.28666510022E-05  3.37016858394E-05  3.45578596842E-05
  3.54357076730E-05  3.63357784895E-05  3.72586347071E-05  3.82048531412E-05
  3.91750252089E-05  4.01697572995E-05  4.11896711528E-05  4.22354042483E-05
  4.33076102031E-05  4.44069591809E-05  4.55341383105E-05  4.66898521157E-05
  4.78748229551E-05  4.90897914742E-05  5.03355170677E-05  5.16127783548E-05
  5.29223736653E-05  5.42651215390E-05  5.56418612369E-05  5.70534532662E-05
  5.85007799178E-05  5.99847458180E-05  6.15062784939E-05  6.30663289528E-05
  6.46658722772E-05  6.63059082336E-05  6.79874618978E-05  6.97115842958E-05
  7.14793530600E-05  7.32918731036E-05  7.51502773106E-05  7.70557272440E-05
  7.90094138721E-05  8.10125583127E-05  8.30664125963E-05  8.51722604485E-05
  8.73314180930E-05  8.95452350735E-05  9.18150950976E-05  9.41424169018E-05
  9.65286551380E-05  9.89753012827E-05  1.01483884570E-04  1.04055972945E-04
  1.06693174047E-04  1.09397136213E-04  1.12169549507E-04  1.15012146778E-04
  1.17926704741E-04  1.20915045090E-04  1.23979035636E-04  1.27120591471E-04
  1.30341676172E-04  1.33644303019E-04  1.37030536263E-04  1.40502492410E-04
  1.44062341545E-04  1.47712308690E-04  1.51454675194E-04  1.55291780156E-04
  1.59226021893E-04  1.63259859434E-04  1.67395814058E-04  1.71636470872E-04
  1.75984480424E-04  1.80442560363E-04  1.85013497132E-04  1.89700147716E-04
  1.94505441425E-04  1.99432381723E-04  2.04484048109E-04  2.09663598038E-04
  2.14974268898E-04  2.20419380030E-04  2.26002334808E-04  2.31726622758E-04
  2.37595821748E-04  2.43613600217E-04  2.49783719474E-04  2.56110036043E-04
  2.62596504079E-04  2.69247177835E-04  2.76066214199E-04  2.83057875290E-04
  2.90226531124E-04  2.97576662345E-04  3.05112863023E-04  3.12839843530E-04
  3.20762433479E-04  3.28885584749E-04  3.37214374571E-04  3.45754008712E-04
  3.54509824720E-04  3.63487295266E-04  3.72692031560E-04  3.82129786864E-04
  3.91806460080E-04  4.01728099445E-04  4.11900906306E-04  4.22331238999E-04
  4.33025616822E-04  4.43990724108E-04  4.55233414406E-04  4.66760714764E-04
  4.78579830120E-04  4.90698147806E-04  5.03123242165E-04  5.15862879285E-04
  5.28925021854E-04  5.42317834137E-04  5.56049687076E-04  5.70129163528E-04
  5.84565063623E-04  5.99366410269E-04  6.14542454789E-04  6.30102682705E-04
  6.46056819666E-04  6.62414837528E-04  6.79186960583E-04  6.96383671954E-04
  7.14015720147E-04  7.32094125765E-04  7.50630188400E-04  7.69635493694E-04
  7.89121920583E-04  8.09101648717E-04  8.29587166076E-04  8.50591276777E-04
  8.72127109071E-04  8.94208123556E-04  9.16848121584E-04  9.40061253890E-04
  9.63862029438E-04  9.88265324488E-04  1.01328639189E-03  1.03894087064E-03
  1.06524479560E-03  1.09221460759E-03  1.11986716363E-03  1.14821974745E-03
  1.17729008036E-03  1.20709633224E-03  1.23765713298E-03  1.26899158407E-03
  1.30111927058E-03  1.33406027333E-03  1.36783518154E-03  1.40246510563E-03
  1.43797169042E-03  1.47437712867E-03  1.51170417499E-03  1.54997615998E-03
  1.58921700489E-03  1.62945123651E-03  1.67070400256E-03  1.71300108735E-03
  1.75636892794E-03  1.80083463065E-03  1.84642598797E-03  1.89317149600E-03
  1.94110037220E-03  1.99024257368E-03  2.04062881591E-03  2.09229059194E-03
  2.14526019205E-03  2.19957072397E-03  2.25525613356E-03  2.31235122600E-03
  2.37089168759E-03  2.43091410801E-03  2.49245600325E-03  2.55555583898E-03
  2.62025305466E-03  2.68658808814E-03  2.75460240100E-03  2.82433850439E-03
  2.89583998563E-03  2.96915153549E-03  3.04431897608E-03  3.12138928948E-03
  3.20041064715E-03  3.28143244001E-03  3.36450530933E-03  3.44968117835E-03
  3.53701328475E-03  3.62655621396E-03  3.71836593321E-03  3.81249982657E-03
  3.90901673079E-03  4.00797697206E-03  4.10944240378E-03  4.21347644512E-03
  4.32014412076E-03  4.42951210147E-03  4.54164874579E-03  4.65662414277E-03
  4.77451015579E-03  4.89538046743E-03  5.01931062559E-03  5.14637809063E-03
  5.27666228386E-03  5.41024463715E-03  5.54720864381E-03  5.68763991081E-03
  5.83162621226E-03  5.97925754428E-03  6.13062618127E-03  6.28582673354E-03
  6.44495620650E-03  6.60811406125E-03  6.77540227676E-03  6.94692541360E-03
  7.12279067933E-03  7.30310799545E-03  7.48799006616E-03  7.67755244878E-03
  7.87191362596E-03  8.07119507976E-03  8.27552136759E-03  8.48502020002E-03
  8.69982252064E-03  8.92006258790E-03  9.14587805900E-03  9.37741007597E-03
  9.61480335386E-03  9.85820627119E-03  1.01077709627E-02  1.03636534145E-02
  1.06260135613E-02  1.08950153869E-02  1.11708270262E-02  1.14536208703E-02
  1.17435736747E-02  1.20408666693E-02  1.23456856718E-02  1.26582212042E-02
  1.29786686112E-02  1.33072281829E-02  1.36441052798E-02  1.39895104610E-02
  1.43436596160E-02  1.47067740996E-02  1.50790808700E-02  1.54608126313E-02
  1.58522079780E-02  1.62535115452E-02  1.66649741605E-02  1.70868530015E-02
  1.75194117562E-02  1.79629207880E-02  1.84176573043E-02  1.88839055303E-02
  1.93619568864E-02  1.98521101702E-02  2.03546717434E-02  2.08699557235E-02
  2.13982841795E-02  2.19399873342E-02  2.24954037694E-02  2.30648806387E-02
  2.36487738836E-02  2.42474484563E-02  2.48612785480E-02  2.54906478224E-02
  2.61359496559E-02  2.67975873831E-02  2.74759745490E-02  2.81715351679E-02
  2.88847039876E-02  2.96159267620E-02  3.03656605290E-02  3.11343738967E-02
  3.19225473360E-02  3.27306734808E-02  3.35592574364E-02  3.44088170948E-02
  3.52798834582E-02  3.61730009717E-02  3.70887278626E-02  3.80276364901E-02
  3.89903137028E-02  3.99773612050E-02  4.09893959338E-02  4.20270504437E-02
  4.30909733026E-02  4.41818294968E-02  4.53003008471E-02  4.64470864345E-02
  4.76229030372E-02  4.88284855789E-02  5.00645875880E-02  5.13319816684E-02
  5.26314599827E-02  5.39638347471E-02  5.53299387393E-02  5.67306258187E-02
  5.81667714603E-02  5.96392733020E-02  6.11490517052E-02  6.26970503307E-02
  6.42842367279E-02  6.59116029401E-02  6.75801661241E-02  6.92909691862E-02
  7.10450814340E-02  7.28435992448E-02  7.46876467507E-02  7.65783765415E-02
  7.85169703848E-02  8.05046399649E-02  8.25426276400E-02  8.46322072188E-02
  8.67746847564E-02  8.89713993710E-02  9.12237240809E-02  9.35330666623E-02
  9.59008705295E-02  9.83286156370E-02  1.00817819404E-01  1.03370037665E-01
  1.05986865639E-01  1.08669938928E-01  1.11420934541E-01  1.14241571940E-01
  1.17133614114E-01  1.20098868684E-01  1.23139189031E-01  1.26256475455E-01
  1.29452676359E-01  1.32729789475E-01  1.36089863105E-01  1.39534997403E-01
  1.43067345691E-01  1.46689115802E-01  1.50402571460E-01  1.54210033695E-01
  1.58113882296E-01  1.62116557294E-01  1.66220560493E-01  1.70428457027E-01
  1.74742876969E-01  1.79166516972E-01  1.83702141954E-01  1.88352586830E-01
  1.93120758278E-01  1.98009636562E-01  2.03022277388E-01  2.08161813821E-01
  2.13431458238E-01  2.18834504338E-01  2.24374329202E-01  2.30054395400E-01
  2.35878253158E-01  2.41849542578E-01  2.47971995908E-01  2.54249439883E-01
  2.60685798109E-01  2.67285093518E-01  2.74051450887E-01  2.80989099408E-01
  2.88102375337E-01  2.95395724703E-01  3.02873706088E-01  3.10540993473E-01
  3.18402379162E-01  3.26462776778E-01  3.34727224330E-01  3.43200887368E-01
  3.51889062208E-01  3.60797179241E-01  3.69930806329E-01  3.79295652289E-01
  3.88897570453E-01  3.98742562332E-01  4.08836781367E-01  4.19186536774E-01
  4.29798297486E-01  4.40678696200E-01  4.51834533518E-01  4.63272782203E-01
  4.75000591532E-01  4.87025291767E-01  4.99354398738E-01  5.11995618538E-01
  5.24956852341E-01  5.38246201340E-01  5.51871971810E-01  5.65842680302E-01
  5.80167058964E-01  5.94854060997E-01  6.09912866258E-01  6.25352886988E-01
  6.41183773704E-01  6.57415421225E-01  6.74057974860E-01  6.91121836745E-01
  7.08617672351E-01  7.26556417144E-01  7.44949283423E-01  7.63807767330E-01
  7.83143656029E-01  8.02969035081E-01  8.23296295993E-01  8.44138143965E-01
  8.65507605830E-01  8.87418038198E-01  9.09883135802E-01  9.32916940060E-01
  9.56533847848E-01  9.80748620504E-01  1.00557639305E+00  1.03103268365E+00
  1.05713340331E+00  1.08389486584E+00  1.11133379801E+00  1.13946735006E+00
  1.16831310637E+00  1.19788909648E+00  1.22821380635E+00  1.25930618990E+00
  1.29118568088E+00  1.32387220503E+00  1.35738619247E+00  1.39174859054E+00
  1.42698087686E+00  1.46310507275E+00  1.50014375702E+00  1.53812008005E+00
  1.57705777827E+00  1.61698118901E+00  1.65791526571E+00  1.69988559349E+00
  1.74291840518E+00  1.78704059768E+00  1.83227974880E+00  1.87866413449E+00
  1.92622274649E+00  1.97498531049E+00  2.02498230467E+00  2.07624497878E+00
  2.12880537367E+00  2.18269634129E+00  2.23795156525E+00  2.29460558186E+00
  2.35269380174E+00  2.41225253189E+00  2.47331899849E+00  2.53593137004E+00
  2.60012878133E+00  2.66595135782E+00  2.73344024076E+00  2.80263761292E+00
  2.87358672488E+00  2.94633192217E+00  3.02091867290E+00  3.09739359621E+00
  3.17580449142E+00  3.25620036790E+00  3.33863147567E+00  3.42314933688E+00
  3.50980677793E+00  3.59865796254E+00  3.68975842560E+00  3.78316510786E+00
  3.87893639154E+00  3.97713213681E+00  4.07781371921E+00  4.18104406800E+00
  4.28688770551E+00  4.39541078746E+00  4.50668114431E+00  4.62076832365E+00
  4.73774363369E+00  4.85768018781E+00  4.98065295024E+00  5.10673878298E+00
  5.23601649377E+00  5.36856688539E+00  5.50447280615E+00  5.64381920167E+00
  5.78669316799E+00  5.93318400599E+00  6.08338327720E+00  6.23738486107E+00
  6.39528501360E+00  6.55718242752E+00  6.72317829398E+00  6.89337636582E+00
  7.06788302235E+00  7.24680733592E+00  7.43026114006E+00  7.61835909936E+00
  7.81121878117E+00  8.00896072907E+00  8.21170853821E+00  8.41958893258E+00
  8.63273184419E+00  8.85127049429E+00  9.07534147666E+00  9.30508484295E+00
  9.54064419025E+00  9.78216675082E+00  1.00298034841E+01  1.02837091712E+01
  1.05440425113E+01  1.08109662213E+01  1.10846471372E+01  1.13652563184E+01
  1.16529691549E+01  1.19479654766E+01  1.22504296656E+01  1.25605507721E+01
  1.28785226318E+01  1.32045439874E+01  1.35388186129E+01  1.38815554409E+01
  1.42329686929E+01  1.45932780138E+01  1.49627086086E+01  1.53414913834E+01
  1.57298630898E+01  1.61280664728E+01  1.65363504224E+01  1.69549701294E+01
  1.73841872447E+01  1.78242700430E+01  1.82754935904E+01  1.87381399163E+01
  1.92124981897E+01  1.96988649000E+01  2.01975440421E+01  2.07088473069E+01
  2.12330942754E+01  2.17706126191E+01  2.23217383044E+01  2.28868158029E+01
  2.34661983064E+01  2.40602479478E+01  2.46693360275E+01  2.52938432453E+01
  2.59341599386E+01  2.65906863261E+01  2.72638327583E+01  2.79540199736E+01
  2.86616793613E+01  2.93872532318E+01  3.01311950923E+01  3.08939699306E+01
  3.16760545059E+01  3.24779376464E+01  3.33001205554E+01  3.41431171237E+01
  3.50074542518E+01  3.58936721784E+01  3.68023248187E+01  3.77339801101E+01
  3.86892203675E+01  3.96686426471E+01  4.06728591197E+01  4.17024974534E+01
  4.27582012056E+01  4.38406302256E+01  4.49504610666E+01  4.60883874092E+01
  4.72551204942E+01  4.84513895679E+01  4.96779423374E+01  5.09355454381E+01
  5.22249849129E+01  5.35470667033E+01  5.49026171537E+01  5.62924835270E+01
  5.77175345352E+01  5.91786608813E+01  6.06767758170E+01  6.22128157129E+01
  6.37877406438E+01  6.54025349892E+01  6.70582080481E+01  6.87557946700E+01
  7.04963559018E+01  7.22809796510E+01  7.41107813655E+01  7.59869047309E+01
  7.79105223855E+01  7.98828366528E+01  8.19050802935E+01  8.39785172757E+01
  8.61044435650E+01  8.82841879346E+01  9.05191127956E+01  9.28106150488E+01
  9.51601269577E+01  9.75691170437E+01  1.00039091004E+02  1.02571592653E+02
  1.05168204887E+02  1.07830550672E+02  1.10560294061E+02  1.13359141233E+02
  1.16228841559E+02  1.19171188695E+02  1.22188021703E+02  1.25281226202E+02
  1.28452735545E+02  1.31704532031E+02  1.35038648135E+02  1.38457167792E+02
  1.41962227685E+02  1.45556018591E+02  1.49240786748E+02  1.53018835255E+02
  1.56892525515E+02
  </PP_R>
  <PP_RAB>
  2.97411764076E-09  3.04940778729E-09  3.12660391296E-09  3.20575426785E-09
  3.28690832351E-09  3.37011680387E-09  3.45543171694E-09  3.54290638732E-09
  3.63259548952E-09  3.72455508216E-09  3.81884264296E-09  3.91551710473E-09
  4.01463889215E-09  4.11626995957E-09  4.22047382971E-09  4.32731563338E-09
  4.43686215018E-09  4.54918185027E-09  4.66434493709E-09  4.78242339134E-09
  4.90349101589E-09  5.02762348195E-09  5.15489837635E-09  5.28539525004E-09
  5.41919566781E-09  5.55638325929E-09  5.69704377117E-09  5.84126512088E-09
  5.98913745143E-09  6.14075318785E-09  6.29620709491E-09  6.45559633636E-09
  6.61902053567E-09  6.78658183829E-09  6.95838497547E-09  7.13453732978E-09
  7.31514900217E-09  7.50033288082E-09  7.69020471167E-09  7.88488317080E-09
  8.08448993859E-09  8.28914977576E-09  8.49899060138E-09  8.71414357279E-09
  8.93474316760E-09  9.16092726775E-09  9.39283724565E-09  9.63061805259E-09
  9.87441830931E-09  1.01243903989E-08  1.03806905621E-08  1.06434789948E-08
  1.09129199484E-08  1.11891818321E-08  1.14724373188E-08  1.17628634522E-08
  1.20606417582E-08  1.23659583579E-08  1.26790040842E-08  1.29999746007E-08
  1.33290705245E-08  1.36664975513E-08  1.40124665840E-08  1.43671938644E-08
  1.47309011087E-08  1.51038156457E-08  1.54861705591E-08  1.58782048333E-08
  1.62801635024E-08  1.66922978036E-08  1.71148653343E-08  1.75481302130E-08
  1.79923632443E-08  1.84478420884E-08  1.89148514342E-08  1.93936831780E-08
  1.98846366051E-08  2.03880185773E-08  2.09041437249E-08  2.14333346427E-08
  2.19759220924E-08  2.25322452088E-08  2.31026517120E-08  2.36874981245E-08
  2.42871499944E-08  2.49019821238E-08  2.55323788025E-08  2.61787340492E-08
  2.68414518568E-08  2.75209464456E-08  2.82176425218E-08  2.89319755432E-08
  2.96643919911E-08  3.04153496496E-08  3.11853178918E-08  3.19747779728E-08
  3.27842233309E-08  3.36141598958E-08  3.44651064049E-08  3.53375947275E-08
  3.62321701970E-08  3.71493919524E-08  3.80898332871E-08  3.90540820075E-08
  4.00427408005E-08  4.10564276100E-08  4.20957760233E-08  4.31614356669E-08
  4.42540726128E-08  4.53743697947E-08  4.65230274347E-08  4.77007634814E-08
  4.89083140581E-08  5.01464339231E-08  5.14158969417E-08  5.27174965697E-08
  5.40520463491E-08  5.54203804170E-08  5.68233540268E-08  5.82618440826E-08
  5.97367496875E-08  6.12489927056E-08  6.27995183379E-08  6.43892957135E-08
  6.60193184950E-08  6.76906054996E-08  6.94042013362E-08  7.11611770579E-08
  7.29626308318E-08  7.48096886251E-08  7.67035049090E-08  7.86452633805E-08
  8.06361777016E-08  8.26774922588E-08  8.47704829399E-08  8.69164579325E-08
  8.91167585406E-08  9.13727600238E-08  9.36858724565E-08  9.60575416091E-08
  9.84892498522E-08  1.00982517083E-07  1.03538901673E-07  1.06160001448E-07
  1.08847454680E-07  1.11602941114E-07  1.14428183019E-07  1.17324946263E-07
  1.20295041419E-07  1.23340324891E-07  1.26462700081E-07  1.29664118575E-07
  1.32946581365E-07  1.36312140095E-07  1.39762898351E-07  1.43301012967E-07
  1.46928695382E-07  1.50648213014E-07  1.54461890683E-07  1.58372112062E-07
  1.62381321167E-07  1.66492023883E-07  1.70706789534E-07  1.75028252485E-07
  1.79459113792E-07  1.84002142887E-07  1.88660179311E-07  1.93436134488E-07
  1.98332993547E-07  2.03353817182E-07  2.08501743573E-07  2.13779990341E-07
  2.19191856563E-07  2.24740724830E-07  2.30430063365E-07  2.36263428192E-07
  2.42244465352E-07  2.48376913189E-07  2.54664604682E-07  2.61111469843E-07
  2.67721538172E-07  2.74498941178E-07  2.81447914957E-07  2.88572802846E-07
  2.95878058130E-07  3.03368246832E-07  3.11048050564E-07  3.18922269453E-07
  3.26995825142E-07  3.35273763866E-07  3.43761259607E-07  3.52463617326E-07
  3.61386276279E-07  3.70534813419E-07  3.79914946879E-07  3.89532539548E-07
  3.99393602735E-07  4.09504299925E-07  4.19870950633E-07  4.30500034353E-07
  4.41398194609E-07  4.52572243104E-07  4.64029163985E-07  4.75776118198E-07
  4.87820447972E-07  5.00169681407E-07  5.12831537175E-07  5.25813929347E-07
  5.39124972342E-07  5.52772985994E-07  5.66766500757E-07  5.81114263033E-07
  5.95825240641E-07  6.10908628419E-07  6.26373853977E-07  6.42230583583E-07
  6.58488728211E-07  6.75158449730E-07  6.92250167258E-07  7.09774563675E-07
  7.27742592300E-07  7.46165483735E-07  7.65054752887E-07  7.84422206164E-07
  8.04279948855E-07  8.24640392695E-07  8.45516263626E-07  8.66920609745E-07
  8.88866809466E-07  9.11368579877E-07  9.34439985319E-07  9.58095446170E-07
  9.82349747864E-07  1.00721805013E-06  1.03271589646E-06  1.05885922385E-06
  1.08566437272E-06  1.11314809716E-06  1.14132757540E-06  1.17022042053E-06
  1.19984469152E-06  1.23021890450E-06  1.26136204433E-06  1.29329357651E-06
  1.32603345927E-06  1.35960215612E-06  1.39402064856E-06  1.42931044929E-06
  1.46549361559E-06  1.50259276309E-06  1.54063107999E-06  1.57963234146E-06
  1.61962092457E-06  1.66062182348E-06  1.70266066509E-06  1.74576372504E-06
  1.78995794414E-06  1.83527094523E-06  1.88173105041E-06  1.92936729874E-06
  1.97820946444E-06  2.02828807546E-06  2.07963443255E-06  2.13228062885E-06
  2.18625956997E-06  2.24160499448E-06  2.29835149508E-06  2.35653454019E-06
  2.41619049609E-06  2.47735664971E-06  2.54007123188E-06  2.60437344125E-06
  2.67030346881E-06  2.73790252296E-06  2.80721285531E-06  2.87827778708E-06
  2.95114173617E-06  3.02585024490E-06  3.10245000854E-06  3.18098890443E-06
  3.26151602193E-06  3.34408169312E-06  3.42873752422E-06  3.51553642789E-06
  3.60453265627E-06  3.69578183490E-06  3.78934099748E-06  3.88526862154E-06
  3.98362466497E-06  4.08447060349E-06  4.18786946909E-06  4.29388588944E-06
  4.40258612825E-06  4.51403812671E-06  4.62831154594E-06  4.74547781055E-06
  4.86561015327E-06  4.98878366072E-06  5.11507532036E-06  5.24456406859E-06
  5.37733084008E-06  5.51345861840E-06  5.65303248783E-06  5.79613968659E-06
  5.94286966133E-06  6.09331412307E-06  6.24756710449E-06  6.40572501872E-06
  6.56788671962E-06  6.73415356352E-06  6.90462947261E-06  7.07942099988E-06
  7.25863739574E-06  7.44239067625E-06  7.63079569321E-06  7.82397020588E-06
  8.02203495463E-06  8.22511373635E-06  8.43333348192E-06  8.64682433543E-06
  8.86571973564E-06  9.09015649928E-06  9.32027490665E-06  9.55621878923E-06
  9.79813561964E-06  1.00461766038E-05  1.03004967753E-05  1.05612550926E-05
  1.08286145382E-05  1.11027422203E-05  1.13838094778E-05  1.16719919867E-05
  1.19674698707E-05  1.22704278128E-05  1.25810551718E-05  1.28995460998E-05
  1.32260996640E-05  1.35609199711E-05  1.39042162945E-05  1.42562032058E-05
  1.46171007082E-05  1.49871343744E-05  1.53665354874E-05  1.57555411853E-05
  1.61543946093E-05  1.65633450558E-05  1.69826481322E-05  1.74125659165E-05
  1.78533671213E-05  1.83053272618E-05  1.87687288276E-05  1.92438614600E-05
  1.97310221322E-05  2.02305153356E-05  2.07426532695E-05  2.12677560371E-05
  2.18061518444E-05  2.23581772065E-05  2.29241771572E-05  2.35045054649E-05
  2.40995248536E-05  2.47096072298E-05  2.53351339150E-05  2.59764958835E-05
  2.66340940076E-05  2.73083393075E-05  2.79996532084E-05  2.87084678040E-05
  2.94352261265E-05  3.01803824236E-05  3.09444024421E-05  3.17277637195E-05
  3.25309558820E-05  3.33544809510E-05  3.41988536563E-05  3.50646017584E-05
  3.59522663780E-05  3.68624023345E-05  3.77955784924E-05  3.87523781172E-05
  3.97333992399E-05  4.07392550305E-05  4.17705741817E-05  4.28280013015E-05
  4.39121973162E-05  4.50238398838E-05  4.61636238169E-05  4.73322615177E-05
  4.85304834227E-05  4.97590384596E-05  5.10186945154E-05  5.23102389161E-05
  5.36344789189E-05  5.49922422170E-05  5.63843774566E-05  5.78117547676E-05
  5.92752663073E-05  6.07758268180E-05  6.23143741989E-05  6.38918700921E-05
  6.55093004840E-05  6.71676763213E-05  6.88680341427E-05  7.06114367273E-05
  7.23989737584E-05  7.42317625050E-05  7.61109485195E-05  7.80377063545E-05
  8.00132402963E-05  8.20387851180E-05  8.41156068509E-05  8.62450035763E-05
  8.84283062365E-05  9.06668794667E-05  9.29621224479E-05  9.53154697819E-05
  9.77283923873E-05  1.00202398419E-04  1.02739034212E-04  1.05339885246E-04
  1.08006577137E-04  1.10740776654E-04  1.13544192762E-04  1.16418577687E-04
  1.19365728012E-04  1.22387485804E-04  1.25485739757E-04  1.28662426383E-04
  1.31919531214E-04  1.35259090046E-04  1.38683190213E-04  1.42193971888E-04
  1.45793629424E-04  1.49484412725E-04  1.53268628649E-04  1.57148642456E-04
  1.61126879280E-04  1.65205825649E-04  1.69388031037E-04  1.73676109458E-04
  1.78072741101E-04  1.82580674004E-04  1.87202725772E-04  1.91941785337E-04
  1.96800814767E-04  2.01782851112E-04  2.06891008307E-04  2.12128479118E-04
  2.17498537134E-04  2.23004538815E-04  2.28649925593E-04  2.34438226017E-04
  2.40373057964E-04  2.46458130897E-04  2.52697248185E-04  2.59094309479E-04
  2.65653313151E-04  2.72378358791E-04  2.79273649772E-04  2.86343495875E-04
  2.93592315985E-04  3.01024640849E-04  3.08645115913E-04  3.16458504222E-04
  3.24469689397E-04  3.32683678690E-04  3.41105606113E-04  3.49740735643E-04
  3.58594464518E-04  3.67672326607E-04  3.76979995869E-04  3.86523289899E-04
  3.96308173569E-04  4.06340762747E-04  4.16627328130E-04  4.27174299156E-04
  4.37988268024E-04  4.49075993817E-04  4.60444406725E-04  4.72100612376E-04
  4.84051896278E-04  4.96305728373E-04  5.08869767703E-04  5.21751867204E-04
  5.34960078606E-04  5.48502657472E-04  5.62388068354E-04  5.76624990085E-04
  5.91222321207E-04  6.06189185525E-04  6.21534937817E-04  6.37269169678E-04
  6.53401715515E-04  6.69942658694E-04  6.86902337843E-04  7.04291353314E-04
  7.22120573808E-04  7.40401143167E-04  7.59144487343E-04  7.78362321535E-04
  7.98066657517E-04  8.18269811138E-04  8.38984410029E-04  8.60223401487E-04
  8.82000060573E-04  9.04327998409E-04  9.27221170683E-04  9.50693886371E-04
  9.74760816686E-04  9.99437004243E-04  1.02473787246E-03  1.05067923521E-03
  1.07727730668E-03  1.10454871154E-03  1.13251049530E-03  1.16118013498E-03
  1.19057555005E-03  1.22071511359E-03  1.25161766382E-03  1.28330251583E-03
  1.31578947368E-03  1.34909884280E-03  1.38325144260E-03  1.41826861959E-03
  1.45417226063E-03  1.49098480667E-03  1.52872926675E-03  1.56742923238E-03
  1.60710889232E-03  1.64779304762E-03  1.68950712722E-03  1.73227720377E-03
  1.77613000997E-03  1.82109295524E-03  1.86719414289E-03  1.91446238766E-03
  1.96292723374E-03  2.01261897324E-03  2.06356866512E-03  2.11580815459E-03
  2.16937009303E-03  2.22428795839E-03  2.28059607614E-03  2.33832964068E-03
  2.39752473736E-03  2.45821836504E-03  2.52044845923E-03  2.58425391575E-03
  2.64967461509E-03  2.71675144732E-03  2.78552633765E-03  2.85604227261E-03
  2.92834332696E-03  3.00247469122E-03  3.07848269990E-03  3.15641486048E-03
  3.23631988310E-03  3.31824771100E-03  3.40224955173E-03  3.48837790919E-03
  3.57668661639E-03  3.66723086917E-03  3.76006726061E-03  3.85525381649E-03
  3.95285003151E-03  4.05291690647E-03  4.15551698643E-03  4.26071439979E-03
  4.36857489834E-03  4.47916589841E-03  4.59255652298E-03  4.70881764487E-03
  4.82802193108E-03  4.95024388816E-03  5.07555990881E-03  5.20404831963E-03
  5.33578943006E-03  5.47086558257E-03  5.60936120417E-03  5.75136285912E-03
  5.89695930308E-03  6.04624153856E-03  6.19930287183E-03  6.35623897120E-03
  6.51714792684E-03  6.68213031208E-03  6.85128924629E-03  7.02473045931E-03
  7.20256235754E-03  7.38489609170E-03  7.57184562632E-03  7.76352781095E-03
  7.96006245317E-03  8.16157239356E-03  8.36818358237E-03  8.58002515833E-03
  8.79722952931E-03  9.01993245513E-03  9.24827313235E-03  9.48239428134E-03
  9.72244223544E-03  9.96856703242E-03  1.02209225083E-02  1.04796663935E-02
  1.07449604113E-02  1.10169703791E-02  1.12958663121E-02  1.15818225292E-02
  1.18750177624E-02  1.21756352683E-02  1.24838629426E-02  1.27998934376E-02
  1.31239242827E-02  1.34561580076E-02  1.37968022694E-02  1.41460699817E-02
  1.45041794482E-02  1.48713544991E-02  1.52478246306E-02  1.56338251488E-02
  1.60295973167E-02  1.64353885047E-02  1.68514523456E-02  1.72780488928E-02
  1.77154447829E-02  1.81639134027E-02  1.86237350597E-02  1.90951971574E-02
  1.95785943748E-02  2.00742288511E-02  2.05824103739E-02  2.11034565732E-02