<PP_INFO>
Generated using Vanderbilt code, version   7  3  6                              
Author: kfg    Generation date:   23    7 2013                              
Automatically converted from original format                                    
    1        The Pseudo was generated with a Scalar-Relativistic Calculation
  2.00000000000E+00    Local Potential cutoff radius
nl pn  l   occ               Rcut            Rcut US             E pseu
5S  5  0  2.00      0.00000000000      1.70000000000     -2.90420904200
5P  5  1  6.00      0.00000000000      1.90000000000     -1.68740512400
6S  6  0  1.50      0.00000000000      1.70000000000     -0.29549760200
5D  5  2  1.00      0.00000000000      2.00000000000     -0.26084752900
</PP_INFO>


<PP_HEADER>
   0                   Version Number
  La                   Element
   US                  Ultrasoft pseudopotential
    T                  Nonlinear Core Correction
SLA  PW   PSX  PSC     PBEsol  Exchange-Correlation functional
   11.00000000000      Z valence
 -101.71217433000      Total energy
    0.00000    0.00000 Suggested cutoff for wfc and rho
    3                  Max angular momentum component
  995                  Number of points in mesh
    4    8             Number of Wavefunctions, Number of Projectors
 Wavefunctions         nl  l   occ
                       5S  0  2.00
                       5P  1  6.00
                       6S  0  1.50
                       5D  2  1.00
</PP_HEADER>


<PP_MESH>
  <PP_R>
  0.00000000000E+00  7.43347527719E-07  1.49940154400E-06  2.26837924853E-06
  3.05050155372E-06  3.84599314817E-06  4.65508256124E-06  5.47800222865E-06
  6.31498855929E-06  7.16628200315E-06  8.03212712035E-06  8.91277265144E-06
  9.80847158885E-06  1.07194812495E-05  1.16460633490E-05  1.25884840762E-05
  1.35470141706E-05  1.45219289991E-05  1.55135086361E-05  1.65220379431E-05
  1.75478066511E-05  1.85911094435E-05  1.96522460412E-05  2.07315212880E-05
  2.18292452390E-05  2.29457332489E-05  2.40813060631E-05  2.52362899098E-05
  2.64110165934E-05  2.76058235902E-05  2.88210541451E-05  3.00570573704E-05
  3.13141883458E-05  3.25928082208E-05  3.38932843181E-05  3.52159902393E-05
  3.65613059723E-05  3.79296180001E-05  3.93213194125E-05  4.07368100182E-05
  4.21764964603E-05  4.36407923329E-05  4.51301182999E-05  4.66449022157E-05
  4.81855792486E-05  4.97525920051E-05  5.13463906578E-05  5.29674330740E-05
  5.46161849481E-05  5.62931199344E-05  5.79987197840E-05  5.97334744826E-05
  6.14978823918E-05  6.32924503917E-05  6.51176940270E-05  6.69741376550E-05
  6.88623145959E-05  7.07827672865E-05  7.27360474356E-05  7.47227161828E-05
  7.67433442596E-05  7.87985121534E-05  8.08888102741E-05  8.30148391239E-05
  8.51772094699E-05  8.73765425190E-05  8.96134700972E-05  9.18886348304E-05
  9.42026903296E-05  9.65563013779E-05  9.89501441224E-05  1.01384906268E-04
  1.03861287274E-04  1.06379998557E-04  1.08941763695E-04  1.11547318633E-04
  1.14197411895E-04  1.16892804804E-04  1.19634271693E-04  1.22422600132E-04
  1.25258591154E-04  1.28143059485E-04  1.31076833776E-04  1.34060756845E-04
  1.37095685914E-04  1.40182492860E-04  1.43322064462E-04  1.46515302660E-04
  1.49763124808E-04  1.53066463943E-04  1.56426269050E-04  1.59843505336E-04
  1.63319154508E-04  1.66854215051E-04  1.70449702522E-04  1.74106649832E-04
  1.77826107553E-04  1.81609144213E-04  1.85456846605E-04  1.89370320099E-04
  1.93350688961E-04  1.97399096674E-04  2.01516706266E-04  2.05704700648E-04
  2.09964282949E-04  2.14296676865E-04  2.18703127008E-04  2.23184899267E-04
  2.27743281168E-04  2.32379582245E-04  2.37095134420E-04  2.41891292377E-04
  2.46769433961E-04  2.51730960568E-04  2.56777297547E-04  2.61909894615E-04
  2.67130226266E-04  2.72439792201E-04  2.77840117756E-04  2.83332754339E-04
  2.88919279879E-04  2.94601299277E-04  3.00380444866E-04  3.06258376884E-04
  3.12236783946E-04  3.18317383533E-04  3.24501922484E-04  3.30792177498E-04
  3.37189955642E-04  3.43697094874E-04  3.50315464570E-04  3.57046966060E-04
  3.63893533173E-04  3.70857132795E-04  3.77939765435E-04  3.85143465795E-04
  3.92470303359E-04  3.99922382986E-04  4.07501845514E-04  4.15210868375E-04
  4.23051666224E-04  4.31026491569E-04  4.39137635424E-04  4.47387427963E-04
  4.55778239191E-04  4.64312479628E-04  4.72992600994E-04  4.81821096921E-04
  4.90800503664E-04  4.99933400834E-04  5.09222412135E-04  5.18670206121E-04
  5.28279496959E-04  5.38053045213E-04  5.47993658635E-04  5.58104192969E-04
  5.68387552778E-04  5.78846692271E-04  5.89484616157E-04  6.00304380505E-04
  6.11309093625E-04  6.22501916957E-04  6.33886065983E-04  6.45464811148E-04
  6.57241478803E-04  6.69219452156E-04  6.81402172247E-04  6.93793138935E-04
  7.06395911906E-04  7.19214111692E-04  7.32251420714E-04  7.45511584338E-04
  7.58998411954E-04  7.72715778066E-04  7.86667623407E-04  8.00857956073E-04
  8.15290852672E-04  8.29970459495E-04  8.44900993709E-04  8.60086744569E-04
  8.75532074647E-04  8.91241421086E-04  9.07219296879E-04  9.23470292159E-04
  9.39999075523E-04  9.56810395372E-04  9.73909081271E-04  9.91300045342E-04
  1.00898828367E-03  1.02697887775E-03  1.04527699593E-03  1.06388789490E-03
  1.08281692121E-03  1.10206951282E-03  1.12165120060E-03  1.14156761001E-03
  1.16182446265E-03  1.18242757791E-03  1.20338287467E-03  1.22469637298E-03
  1.24637419580E-03  1.26842257075E-03  1.29084783189E-03  1.31365642158E-03
  1.33685489228E-03  1.36044990846E-03  1.38444824851E-03  1.40885680669E-03
  1.43368259511E-03  1.45893274573E-03  1.48461451244E-03  1.51073527311E-03
  1.53730253173E-03  1.56432392056E-03  1.59180720232E-03  1.61976027242E-03
  1.64819116125E-03  1.67710803644E-03  1.70651920525E-03  1.73643311695E-03
  1.76685836523E-03  1.79780369066E-03  1.82927798324E-03  1.86129028492E-03
  1.89384979223E-03  1.92696585887E-03  1.96064799846E-03  1.99490588721E-03
  2.02974936677E-03  2.06518844697E-03  2.10123330880E-03  2.13789430723E-03
  2.17518197426E-03  2.21310702193E-03  2.25168034535E-03  2.29091302591E-03
  2.33081633439E-03  2.37140173423E-03  2.41268088484E-03  2.45466564493E-03
  2.49736807589E-03  2.54080044532E-03  2.58497523048E-03  2.62990512195E-03
  2.67560302720E-03  2.72208207437E-03  2.76935561599E-03  2.81743723282E-03
  2.86634073779E-03  2.91608017993E-03  2.96666984841E-03  3.01812427667E-03
  3.07045824657E-03  3.12368679265E-03  3.17782520644E-03  3.23288904086E-03
  3.28889411467E-03  3.34585651707E-03  3.40379261223E-03  3.46271904408E-03
  3.52265274105E-03  3.58361092093E-03  3.64561109581E-03  3.70867107716E-03
  3.77280898088E-03  3.83804323255E-03  3.90439257271E-03  3.97187606225E-03
  4.04051308786E-03  4.11032336763E-03  4.18132695670E-03  4.25354425304E-03
  4.32699600327E-03  4.40170330866E-03  4.47768763117E-03  4.55497079963E-03
  4.63357501600E-03  4.71352286174E-03  4.79483730434E-03  4.87754170384E-03
  4.96165981963E-03  5.04721581722E-03  5.13423427518E-03  5.22274019223E-03
  5.31275899442E-03  5.40431654240E-03  5.49743913888E-03  5.59215353619E-03
  5.68848694393E-03  5.78646703684E-03  5.88612196269E-03  5.98748035041E-03
  6.09057131832E-03  6.19542448245E-03  6.30206996509E-03  6.41053840342E-03
  6.52086095832E-03  6.63306932333E-03  6.74719573373E-03  6.86327297585E-03
  6.98133439642E-03  7.10141391221E-03  7.22354601974E-03  7.34776580520E-03
  7.47410895452E-03  7.60261176366E-03  7.73331114898E-03  7.86624465789E-03
  8.00145047960E-03  8.13896745615E-03  8.27883509348E-03  8.42109357288E-03
  8.56578376244E-03  8.71294722887E-03  8.86262624936E-03  9.01486382382E-03
  9.16970368715E-03  9.32719032185E-03  9.48736897078E-03  9.65028565016E-03
  9.81598716281E-03  9.98452111156E-03  1.01559359130E-02  1.03302808112E-02
  1.05076058921E-02  1.06879620978E-02  1.08714012411E-02  1.10579760206E-02
  1.12477400355E-02  1.14407478014E-02  1.16370547658E-02  1.18367173237E-02
  1.20397928344E-02  1.22463396375E-02  1.24564170700E-02  1.26700854830E-02
  1.28874062593E-02  1.31084418310E-02  1.33332556973E-02  1.35619124429E-02
  1.37944777564E-02  1.40310184494E-02  1.42716024755E-02  1.45162989497E-02
  1.47651781686E-02  1.50183116305E-02  1.52757720556E-02  1.55376334073E-02
  1.58039709134E-02  1.60748610874E-02  1.63503817510E-02  1.66306120557E-02
  1.69156325064E-02  1.72055249840E-02  1.75003727688E-02  1.78002605651E-02
  1.81052745247E-02  1.84155022722E-02  1.87310329302E-02  1.90519571444E-02
  1.93783671101E-02  1.97103565987E-02  2.00480209842E-02  2.03914572712E-02
  2.07407641222E-02  2.10960418863E-02  2.14573926279E-02  2.18249201562E-02
  2.21987300546E-02  2.25789297116E-02  2.29656283511E-02  2.33589370641E-02
  2.37589688407E-02  2.41658386023E-02  2.45796632345E-02  2.50005616213E-02
  2.54286546786E-02  2.58640653893E-02  2.63069188384E-02  2.67573422492E-02
  2.72154650196E-02  2.76814187594E-02  2.81553373280E-02  2.86373568732E-02
  2.91276158698E-02  2.96262551597E-02  3.01334179924E-02  3.06492500659E-02
  3.11738995688E-02  3.17075172227E-02  3.22502563257E-02  3.28022727963E-02
  3.33637252179E-02  3.39347748852E-02  3.45155858496E-02  3.51063249668E-02
  3.57071619447E-02  3.63182693923E-02  3.69398228688E-02  3.75720009346E-02
  3.82149852021E-02  3.88689603883E-02  3.95341143676E-02  4.02106382259E-02
  4.08987263154E-02  4.15985763105E-02  4.23103892645E-02  4.30343696675E-02
  4.37707255052E-02  4.45196683182E-02  4.52814132634E-02  4.60561791753E-02
  4.68441886292E-02  4.76456680050E-02  4.84608475521E-02  4.92899614559E-02
  5.01332479048E-02  5.09909491586E-02  5.18633116183E-02  5.27505858968E-02
  5.36530268908E-02  5.45708938542E-02  5.55044504723E-02  5.64539649378E-02
  5.74197100281E-02  5.84019631828E-02  5.94010065844E-02  6.04171272386E-02
  6.14506170573E-02  6.25017729421E-02  6.35708968698E-02  6.46582959789E-02
  6.57642826582E-02  6.68891746362E-02  6.80332950727E-02  6.91969726513E-02
  7.03805416741E-02  7.15843421575E-02  7.28087199301E-02  7.40540267320E-02
  7.53206203157E-02  7.66088645491E-02  7.79191295197E-02  7.92517916414E-02
  8.06072337621E-02  8.19858452743E-02  8.33880222262E-02  8.48141674362E-02
  8.62646906083E-02  8.77400084496E-02  8.92405447904E-02  9.07667307058E-02
  9.23190046395E-02  9.38978125297E-02  9.55036079373E-02  9.71368521764E-02
  9.87980144464E-02  1.00487571967E-01  1.02206010116E-01  1.03953822566E-01
  1.05731511431E-01  1.07539587406E-01  1.09378569916E-01  1.11248987266E-01
  1.13151376791E-01  1.15086285009E-01  1.17054267783E-01  1.19055890475E-01
  1.21091728115E-01  1.23162365557E-01  1.25268397657E-01  1.27410429436E-01
  1.29589076259E-01  1.31804964009E-01  1.34058729267E-01  1.36351019497E-01
  1.38682493230E-01  1.41053820252E-01  1.43465681800E-01  1.45918770755E-01
  1.48413791843E-01  1.50951461834E-01  1.53532509751E-01  1.56157677081E-01
  1.58827717982E-01  1.61543399507E-01  1.64305501817E-01  1.67114818411E-01
  1.69972156351E-01  1.72878336496E-01  1.75834193735E-01  1.78840577228E-01
  1.81898350650E-01  1.85008392443E-01  1.88171596059E-01  1.91388870226E-01
  1.94661139205E-01  1.97989343056E-01  2.01374437906E-01  2.04817396229E-01
  2.08319207119E-01  2.11880876579E-01  2.15503427808E-01  2.19187901494E-01
  2.22935356116E-01  2.26746868245E-01  2.30623532854E-01  2.34566463634E-01
  2.38576793314E-01  2.42655673982E-01  2.46804277422E-01  2.51023795449E-01
  2.55315440248E-01  2.59680444724E-01  2.64120062861E-01  2.68635570074E-01
  2.73228263580E-01  2.77899462772E-01  2.82650509596E-01  2.87482768934E-01
  2.92397629002E-01  2.97396501743E-01  3.02480823237E-01  3.07652054111E-01
  3.12911679961E-01  3.18261211773E-01  3.23702186366E-01  3.29236166827E-01
  3.34864742960E-01  3.40589531746E-01  3.46412177808E-01  3.52334353877E-01
  3.58357761282E-01  3.64484130430E-01  3.70715221308E-01  3.77052823988E-01
  3.83498759142E-01  3.90054878561E-01  3.96723065692E-01  4.03505236175E-01
  4.10403338398E-01  4.17419354051E-01  4.24555298699E-01  4.31813222363E-01
  4.39195210103E-01  4.46703382620E-01  4.54339896868E-01  4.62106946670E-01
  4.70006763348E-01  4.78041616367E-01  4.86213813985E-01  4.94525703916E-01
  5.02979674005E-01  5.11578152914E-01  5.20323610821E-01  5.29218560124E-01
  5.38265556173E-01  5.47467197992E-01  5.56826129037E-01  5.66345037946E-01
  5.76026659319E-01  5.85873774497E-01  5.95889212366E-01  6.06075850168E-01
  6.16436614326E-01  6.26974481288E-01  6.37692478379E-01  6.48593684672E-01
  6.59681231873E-01  6.70958305220E-01  6.82428144396E-01  6.94094044466E-01
  7.05959356817E-01  7.18027490123E-01  7.30301911325E-01  7.42786146627E-01
  7.55483782509E-01  7.68398466755E-01  7.81533909505E-01  7.94893884316E-01
  8.08482229251E-01  8.22302847979E-01  8.36359710896E-01  8.50656856266E-01
  8.65198391383E-01  8.79988493749E-01  8.95031412273E-01  9.10331468495E-01
  9.25893057826E-01  9.41720650808E-01  9.57818794403E-01  9.74192113296E-01
  9.90845311224E-01  1.00778317233E+00  1.02501056253E+00  1.04253243093E+00
  1.06035381121E+00  1.07847982312E+00  1.09691567390E+00  1.11566665982E+00
  1.13473816768E+00  1.15413567635E+00  1.17386475835E+00  1.19393108148E+00
  1.21434041040E+00  1.23509860832E+00  1.25621163865E+00  1.27768556678E+00
  1.29952656173E+00  1.32174089802E+00  1.34433495738E+00  1.36731523065E+00
  1.39068831962E+00  1.41446093893E+00  1.43863991799E+00  1.46323220295E+00
  1.48824485870E+00  1.51368507089E+00  1.53956014800E+00  1.56587752345E+00
  1.59264475770E+00  1.61986954046E+00  1.64755969289E+00  1.67572316984E+00
  1.70436806211E+00  1.73350259884E+00  1.76313514981E+00  1.79327422789E+00
  1.82392849145E+00  1.85510674686E+00  1.88681795103E+00  1.91907121398E+00
  1.95187580145E+00  1.98524113756E+00  2.01917680752E+00  2.05369256041E+00
  2.08879831191E+00  2.12450414725E+00  2.16082032401E+00  2.19775727512E+00
  2.23532561187E+00  2.27353612690E+00  2.31239979736E+00  2.35192778802E+00
  2.39213145453E+00  2.43302234660E+00  2.47461221140E+00  2.51691299690E+00
  2.55993685529E+00  2.60369614650E+00  2.64820344172E+00  2.69347152703E+00
  2.73951340709E+00  2.78634230883E+00  2.83397168529E+00  2.88241521947E+00
  2.93168682825E+00  2.98180066643E+00  3.03277113073E+00  3.08461286398E+00
  3.13734075931E+00  3.19096996442E+00  3.24551588595E+00  3.30099419388E+00
  3.35742082606E+00  3.41481199277E+00  3.47318418137E+00  3.53255416108E+00
  3.59293898773E+00  3.65435600872E+00  3.71682286796E+00  3.78035751099E+00
  3.84497819007E+00  3.91070346947E+00  3.97755223080E+00  4.04554367841E+00
  4.11469734492E+00  4.18503309685E+00  4.25657114030E+00  4.32933202677E+00
  4.40333665904E+00  4.47860629721E+00  4.55516256481E+00  4.63302745495E+00
  4.71222333673E+00  4.79277296157E+00  4.87469946984E+00  4.95802639743E+00
  5.04277768255E+00  5.12897767261E+00  5.21665113120E+00  5.30582324521E+00
  5.39651963205E+00  5.48876634706E+00  5.58258989091E+00  5.67801721730E+00
  5.77507574066E+00  5.87379334402E+00  5.97419838704E+00  6.07631971414E+00
  6.18018666281E+00  6.28582907201E+00  6.39327729075E+00  6.50256218684E+00
  6.61371515571E+00  6.72676812945E+00  6.84175358600E+00  6.95870455846E+00
  7.07765464457E+00  7.19863801640E+00  7.32168943012E+00  7.44684423602E+00
  7.57413838867E+00  7.70360845720E+00  7.83529163586E+00  7.96922575469E+00
  8.10544929035E+00  8.24400137724E+00  8.38492181869E+00  8.52825109842E+00
  8.67403039215E+00  8.82230157946E+00  8.97310725579E+00  9.12649074468E+00
  9.28249611025E+00  9.44116816983E+00  9.60255250682E+00  9.76669548382E+00
  9.93364425593E+00  1.01034467843E+01  1.02761518499E+01  1.04518090676E+01
  1.06304689003E+01  1.08121826734E+01  1.09970025900E+01  1.11849817450E+01
  1.13761741414E+01  1.15706347049E+01  1.17684193004E+01  1.19695847476E+01
  1.21741888373E+01  1.23822903483E+01  1.25939490643E+01  1.28092257906E+01
  1.30281823721E+01  1.32508817108E+01  1.34773877839E+01  1.37077656622E+01
  1.39420815288E+01  1.41804026981E+01  1.44227976352E+01  1.46693359755E+01
  1.49200885446E+01  1.51751273789E+01  1.54345257462E+01  1.56983581665E+01
  1.59667004339E+01  1.62396296378E+01  1.65172241856E+01  1.67995638247E+01
  1.70867296660E+01  1.73788042065E+01  1.76758713536E+01  1.79780164491E+01
  1.82853262933E+01  1.85978891703E+01  1.89157948736E+01  1.92391347312E+01
  1.95680016323E+01  1.99024900542E+01  2.02426960889E+01  2.05887174709E+01
  2.09406536055E+01  2.12986055972E+01  2.16626762786E+01  2.20329702402E+01
  2.24095938603E+01  2.27926553355E+01  2.31822647121E+01  2.35785339172E+01
  2.39815767914E+01  2.43915091209E+01  2.48084486716E+01  2.52325152220E+01
  2.56638305982E+01  2.61025187088E+01  2.65487055805E+01  2.70025193940E+01
  2.74640905213E+01  2.79335515628E+01  2.84110373857E+01  2.88966851623E+01
  2.93906344099E+01  2.98930270305E+01  3.04040073519E+01  3.09237221686E+01
  3.14523207849E+01  3.19899550568E+01  3.25367794362E+01  3.30929510152E+01
  3.36586295712E+01  3.42339776127E+01  3.48191604259E+01  3.54143461226E+01
  3.60197056882E+01  3.66354130307E+01  3.72616450309E+01  3.78985815932E+01
  3.85464056971E+01  3.92053034500E+01  3.98754641404E+01  4.05570802924E+01
  4.12503477214E+01  4.19554655895E+01  4.26726364635E+01  4.34020663726E+01
  4.41439648681E+01  4.48985450830E+01  4.56660237935E+01  4.64466214815E+01
  4.72405623975E+01  4.80480746255E+01  4.88693901480E+01  4.97047449131E+01
  5.05543789022E+01  5.14185361985E+01  5.22974650577E+01  5.31914179792E+01
  5.41006517782E+01  5.50254276601E+01  5.59660112951E+01  5.69226728946E+01
  5.78956872890E+01  5.88853340065E+01  5.98918973536E+01  6.09156664962E+01
  6.19569355436E+01  6.30160036321E+01  6.40931750116E+01  6.51887591324E+01
  6.63030707348E+01  6.74364299389E+01  6.85891623369E+01  6.97615990864E+01
  7.09540770059E+01  7.21669386712E+01  7.34005325140E+01  7.46552129219E+01
  7.59313403403E+01  7.72292813760E+01  7.85494089022E+01  7.98921021661E+01
  8.12577468975E+01  8.26467354196E+01  8.40594667621E+01  8.54963467752E+01
  8.69577882468E+01  8.84442110207E+01  8.99560421176E+01  9.14937158570E+01
  9.30576739831E+01  9.46483657906E+01  9.62662482546E+01  9.79117861614E+01
  9.95854522421E+01  1.01287727309E+02  1.03019100392E+02  1.04780068882E+02
  1.06571138670E+02  1.08392824297E+02  1.10245649097E+02  1.12130145351E+02
  1.14046854439E+02  1.15996326994E+02  1.17979123061E+02  1.19995812260E+02
  1.22046973946E+02  1.24133197379E+02  1.26255081889E+02  1.28413237054E+02
  1.30608282870E+02  1.32840849930E+02  1.35111579608E+02  1.37421124241E+02
  1.39770147317E+02  1.42159323664E+02  1.44589339645E+02  1.47060893359E+02
  1.49574694834E+02  1.52131466237E+02  1.54731942079E+02  1.57376869427E+02
  1.60067008115E+02  1.62803130971E+02  1.65586024028E+02  1.68416486758E+02
  1.71295332298E+02  1.74223387685E+02  1.77201494092E+02  1.80230507072E+02
  1.83311296802E+02  1.86444748332E+02  1.89631761844E+02  1.92873252903E+02
  1.96170152728E+02  1.99523408455E+02  2.02933983408E+02  2.06402857380E+02
  2.09931026912E+02  2.13519505578E+02  2.17169324278E+02  2.20881531536E+02
  2.24657193795E+02  2.28497395732E+02  2.32403240561E+02  2.36375850357E+02
  2.40416366373E+02  2.44525949371E+02  2.48705779955E+02  2.52957058910E+02
  2.57281007545E+02  2.61678868047E+02  2.66151903837E+02  2.70701399931E+02
  2.75328663312E+02  2.80035023302E+02  2.84821831948E+02  2.89690464408E+02
  2.94642319344E+02  2.99678819330E+02  3.04801411254E+02  3.10011566738E+02
  3.15310782558E+02  3.20700581077E+02  3.26182510680E+02  3.31758146219E+02
  3.37429089465E+02  3.43196969572E+02  3.49063443540E+02  3.55030196693E+02
  3.61098943164E+02  3.67271426386E+02  3.73549419595E+02  3.79934726335E+02
  3.86429180983E+02  3.93034649270E+02  3.99753028818E+02  4.06586249688E+02
  4.13536274933E+02  4.20605101159E+02  4.27794759105E+02  4.35107314219E+02
  4.42544867257E+02  4.50109554884E+02  4.57803550290E+02  4.65629063808E+02
  4.73588343559E+02  4.81683676089E+02  4.89917387031E+02  4.98291841771E+02
  5.06809446126E+02  5.15472647041E+02  5.24283933285E+02  5.33245836170E+02
  5.42360930277E+02  5.51631834198E+02  5.61061211282E+02  5.70651770407E+02
  5.80406266756E+02  5.90327502607E+02  6.00418328138E+02  6.10681642249E+02
  6.21120393391E+02  6.31737580416E+02  6.42536253435E+02  6.53519514698E+02
  6.64690519484E+02  6.76052477007E+02  6.87608651337E+02  6.99362362339E+02
  7.11316986627E+02  7.23475958533E+02  7.35842771095E+02  7.48420977058E+02
  7.61214189897E+02  7.74226084856E+02  7.87460400000E+02  8.00920937291E+02
  8.14611563681E+02  8.28536212222E+02  8.42698883197E+02  8.57103645267E+02
  8.71754636641E+02  8.86656066265E+02  9.01812215032E+02
  </PP_R>
  <PP_RAB>
  7.37065767668E-07  7.49664878307E-07  7.62479353159E-07  7.75512873575E-07
  7.88769183832E-07  8.02252092213E-07  8.15965472095E-07  8.29913263068E-07
  8.44099472062E-07  8.58528174501E-07  8.73203515470E-07  8.88129710912E-07
  9.03311048835E-07  9.18751890541E-07  9.34456671888E-07  9.50429904553E-07
  9.66676177339E-07  9.83200157484E-07  1.00000659201E-06  1.01710030908E-06
  1.03448621938E-06  1.05216931756E-06  1.07015468362E-06  1.08844748441E-06
  1.10705297511E-06  1.12597650070E-06  1.14522349755E-06  1.16479949495E-06
  1.18471011671E-06  1.20496108276E-06  1.22555821081E-06  1.24650741801E-06
  1.26781472268E-06  1.28948624599E-06  1.31152821374E-06  1.33394695816E-06
  1.35674891974E-06  1.37994064903E-06  1.40352880856E-06  1.42752017476E-06
  1.45192163988E-06  1.47674021399E-06  1.50198302699E-06  1.52765733065E-06
  1.55377050069E-06  1.58033003894E-06  1.60734357543E-06  1.63481887062E-06
  1.66276381764E-06  1.69118644452E-06  1.72009491655E-06  1.74949753856E-06
  1.77940275736E-06  1.80981916414E-06  1.84075549694E-06  1.87222064318E-06
  1.90422364217E-06  1.93677368778E-06  1.96988013098E-06  2.00355248263E-06
  2.03780041614E-06  2.07263377027E-06  2.10806255197E-06  2.14409693926E-06
  2.18074728411E-06  2.21802411545E-06  2.25593814220E-06  2.29450025632E-06
  2.33372153597E-06  2.37361324865E-06  2.41418685449E-06  2.45545400949E-06
  2.49742656892E-06  2.54011659067E-06  2.58353633877E-06  2.62769828686E-06
  2.67261512183E-06  2.71829974740E-06  2.76476528788E-06  2.81202509193E-06
  2.86009273638E-06  2.90898203012E-06  2.95870701811E-06  3.00928198538E-06
  3.06072146112E-06  3.11304022292E-06  3.16625330093E-06  3.22037598224E-06
  3.27542381526E-06  3.33141261415E-06  3.38835846343E-06  3.44627772252E-06
  3.50518703051E-06  3.56510331091E-06  3.62604377651E-06  3.68802593431E-06
  3.75106759060E-06  3.81518685602E-06  3.88040215080E-06  3.94673221002E-06
  4.01419608904E-06  4.08281316891E-06  4.15260316201E-06  4.22358611763E-06
  4.29578242782E-06  4.36921283317E-06  4.44389842882E-06  4.51986067050E-06
  4.59712138068E-06  4.67570275488E-06  4.75562736800E-06  4.83691818084E-06
  4.91959854667E-06  5.00369221797E-06  5.08922335321E-06  5.17621652385E-06
  5.26469672132E-06  5.35468936429E-06  5.44622030590E-06  5.53931584121E-06
  5.63400271477E-06  5.73030812829E-06  5.82825974845E-06  5.92788571485E-06
  6.02921464810E-06  6.13227565806E-06  6.23709835215E-06  6.34371284390E-06
  6.45214976159E-06  6.56244025706E-06  6.67461601462E-06  6.78870926021E-06
  6.90475277060E-06  7.02277988284E-06  7.14282450385E-06  7.26492112012E-06
  7.38910480765E-06  7.51541124200E-06  7.64387670857E-06  7.77453811301E-06
  7.90743299180E-06  8.04259952308E-06  8.18007653756E-06  8.31990352975E-06
  8.46212066922E-06  8.60676881221E-06  8.75388951333E-06  8.90352503751E-06
  9.05571837215E-06  9.21051323943E-06  9.36795410895E-06  9.52808621039E-06
  9.69095554663E-06  9.85660890688E-06  1.00250938801E-05  1.01964588688E-05
  1.03707531029E-05  1.05480266536E-05  1.07283304483E-05  1.09117162847E-05
  1.10982368461E-05  1.12879457161E-05  1.14808973945E-05  1.16771473126E-05
  1.18767518491E-05  1.20797683466E-05  1.22862551278E-05  1.24962715123E-05
  1.27098778339E-05  1.29271354574E-05  1.31481067967E-05  1.33728553327E-05
  1.36014456313E-05  1.38339433620E-05  1.40704153169E-05  1.43109294299E-05
  1.45555547960E-05  1.48043616913E-05  1.50574215933E-05  1.53148072010E-05
  1.55765924566E-05  1.58428525657E-05  1.61136640198E-05  1.63891046178E-05
  1.66692534884E-05  1.69541911130E-05  1.72439993485E-05  1.75387614514E-05
  1.78385621011E-05  1.81434874245E-05  1.84536250207E-05  1.87690639863E-05
  1.90898949408E-05  1.94162100527E-05  1.97481030660E-05  2.00856693272E-05
  2.04290058125E-05  2.07782111559E-05  2.11333856773E-05  2.14946314114E-05
  2.18620521371E-05  2.22357534075E-05  2.26158425794E-05  2.30024288454E-05
  2.33956232640E-05  2.37955387924E-05  2.42022903187E-05  2.46159946946E-05
  2.50367707695E-05  2.54647394242E-05  2.59000236057E-05  2.63427483628E-05
  2.67930408818E-05  2.72510305229E-05  2.77168488578E-05  2.81906297070E-05
  2.86725091786E-05  2.91626257073E-05  2.96611200940E-05  3.01681355466E-05
  3.06838177207E-05  3.12083147619E-05  3.17417773480E-05  3.22843587325E-05
  3.28362147885E-05  3.33975040537E-05  3.39683877754E-05  3.45490299577E-05
  3.51395974078E-05  3.57402597841E-05  3.63511896456E-05  3.69725625003E-05
  3.76045568569E-05  3.82473542749E-05  3.89011394177E-05  3.95661001051E-05
  4.02424273674E-05  4.09303155004E-05  4.16299621210E-05  4.23415682241E-05
  4.30653382404E-05  4.38014800950E-05  4.45502052673E-05  4.53117288515E-05
  4.60862696186E-05  4.68740500791E-05  4.76752965471E-05  4.84902392053E-05
  4.93191121709E-05  5.01621535630E-05  5.10196055712E-05  5.18917145248E-05
  5.27787309638E-05  5.36809097109E-05  5.45985099446E-05  5.55317952737E-05
  5.64810338130E-05  5.74464982603E-05  5.84284659750E-05  5.94272190572E-05
  6.04430444296E-05  6.14762339190E-05  6.25270843408E-05  6.35958975839E-05
  6.46829806978E-05  6.57886459804E-05  6.69132110679E-05  6.80569990261E-05
  6.92203384432E-05  7.04035635241E-05  7.16070141863E-05  7.28310361581E-05
  7.40759810773E-05  7.53422065923E-05  7.66300764654E-05  7.79399606766E-05
  7.92722355303E-05  8.06272837633E-05  8.20054946547E-05  8.34072641379E-05
  8.48329949140E-05  8.62830965680E-05  8.77579856859E-05  8.92580859750E-05
  9.07838283849E-05  9.23356512320E-05  9.39140003250E-05  9.55193290929E-05
  9.71520987156E-05  9.88127782564E-05  1.00501844796E-04  1.02219783571E-04
  1.03967088112E-04  1.05744260386E-04  1.07551810939E-04  1.09390259046E-04
  1.11260132858E-04  1.13161969553E-04  1.15096315492E-04  1.17063726375E-04
  1.19064767402E-04  1.21100013432E-04  1.23170049153E-04  1.25275469246E-04
  1.27416878556E-04  1.29594892270E-04  1.31810136089E-04  1.34063246410E-04
  1.36354870507E-04  1.38685666719E-04  1.41056304640E-04  1.43467465308E-04
  1.45919841402E-04  1.48414137443E-04  1.50951069994E-04  1.53531367866E-04
  1.56155772330E-04  1.58825037324E-04  1.61539929679E-04  1.64301229330E-04
  1.67109729544E-04  1.69966237150E-04  1.72871572767E-04  1.75826571041E-04
  1.78832080887E-04  1.81888965730E-04  1.84998103752E-04  1.88160388150E-04
  1.91376727386E-04  1.94648045453E-04  1.97975282136E-04  2.01359393288E-04
  2.04801351096E-04  2.08302144369E-04  2.11862778818E-04  2.15484277343E-04
  2.19167680332E-04  2.22914045954E-04  2.26724450467E-04  2.30599988528E-04
  2.34541773504E-04  2.38550937792E-04  2.42628633149E-04  2.46776031017E-04
  2.50994322863E-04  2.55284720521E-04  2.59648456540E-04  2.64086784535E-04
  2.68600979554E-04  2.73192338436E-04  2.77862180191E-04  2.82611846373E-04
  2.87442701470E-04  2.92356133293E-04  2.97353553375E-04  3.02436397379E-04
  3.07606125508E-04  3.12864222924E-04  3.18212200178E-04  3.23651593639E-04
  3.29183965939E-04  3.34810906423E-04  3.40534031602E-04  3.46354985618E-04
  3.52275440720E-04  3.58297097738E-04  3.64421686580E-04  3.70650966720E-04
  3.76986727711E-04  3.83430789693E-04  3.89985003922E-04  3.96651253296E-04
  4.03431452899E-04  4.10327550552E-04  4.17341527370E-04  4.24475398333E-04
  4.31731212863E-04  4.39111055417E-04  4.46617046080E-04  4.54251341178E-04
  4.62016133896E-04  4.69913654909E-04  4.77946173022E-04  4.86115995822E-04
  4.94425470340E-04  5.02876983729E-04  5.11472963944E-04  5.20215880444E-04
  5.29108244900E-04  5.38152611916E-04  5.47351579763E-04  5.56707791128E-04
  5.66223933868E-04  5.75902741788E-04  5.85746995421E-04  5.95759522832E-04
  6.05943200424E-04  6.16300953773E-04  6.26835758460E-04  6.37550640930E-04
  6.48448679363E-04  6.59533004552E-04  6.70806800812E-04  6.82273306885E-04
  6.93935816876E-04  7.05797681199E-04  7.17862307539E-04  7.30133161828E-04
  7.42613769245E-04  7.55307715229E-04  7.68218646503E-04  7.81350272129E-04
  7.94706364568E-04  8.08290760767E-04  8.22107363261E-04  8.36160141291E-04
  8.50453131950E-04  8.64990441337E-04  8.79776245739E-04  8.94814792833E-04
  9.10110402900E-04  9.25667470076E-04  9.41490463602E-04  9.57583929121E-04
  9.73952489972E-04  9.90600848527E-04  1.00753378754E-03  1.02475617151E-03
  1.04227294809E-03  1.06008914953E-03  1.07820989407E-03  1.09664038744E-03
  1.11538592438E-03  1.13445189011E-03  1.15384376192E-03  1.17356711071E-03
  1.19362760262E-03  1.21403100064E-03  1.23478316628E-03  1.25589006123E-03
  1.27735774908E-03  1.29919239711E-03  1.32140027797E-03  1.34398777155E-03
  1.36696136682E-03  1.39032766364E-03  1.41409337469E-03  1.43826532740E-03
  1.46285046591E-03  1.48785585305E-03  1.51328867238E-03  1.53915623027E-03
  1.56546595796E-03  1.59222541373E-03  1.61944228504E-03  1.64712439079E-03
  1.67527968350E-03  1.70391625165E-03  1.73304232196E-03  1.76266626180E-03
  1.79279658154E-03  1.82344193705E-03  1.85461113215E-03  1.88631312113E-03
  1.91855701137E-03  1.95135206592E-03  1.98470770615E-03  2.01863351450E-03
  2.05313923720E-03  2.08823478707E-03  2.12393024639E-03  2.16023586976E-03
  2.19716208710E-03  2.23471950659E-03  2.27291891775E-03  2.31177129454E-03
  2.35128779848E-03  2.39147978190E-03  2.43235879119E-03  2.47393657010E-03
  2.51622506310E-03  2.55923641888E-03  2.60298299375E-03  2.64747735527E-03