<PP_INFO>
Generated using Vanderbilt code, version   7  3  6                              
Author: kfg        Generation date:   22    1   20                              
Automatically converted from original format                                    
    1        The Pseudo was generated with a Scalar-Relativistic Calculation
  1.30000000000E+00    Local Potential cutoff radius
nl pn  l   occ               Rcut            Rcut US             E pseu
2S  2  0  2.00      0.00000000000      1.35000000000     -6.03265571300
2P  2  1  6.00      0.00000000000      1.45000000000     -3.60392003900
3S  3  0  1.70      0.00000000000      1.35000000000     -0.48277091400
3P  3  1  0.00      0.00000000000      1.45000000000     -0.21235114000
</PP_INFO>


<PP_HEADER>
   0                   Version Number
  Mg                   Element
   US                  Ultrasoft pseudopotential
    F                  Nonlinear Core Correction
SLA  PW   PSX  PSC     PBEsol  Exchange-Correlation functional
   10.00000000000      Z valence
 -124.86801767000      Total energy
    0.00000    0.00000 Suggested cutoff for wfc and rho
    2                  Max angular momentum component
  821                  Number of points in mesh
    4    7             Number of Wavefunctions, Number of Projectors
 Wavefunctions         nl  l   occ
                       2S  0  2.00
                       2P  1  6.00
                       3S  0  1.70
                       3P  1  0.00
</PP_HEADER>


<PP_MESH>
  <PP_R>
  0.00000000000E+00  4.76837594689E-09  9.65746390557E-09  1.46703197152E-08
  1.98100765738E-08  2.50799469967E-08  3.04832248246E-08  3.60232872819E-08
  4.17035970880E-08  4.75277046215E-08  5.34992501391E-08  5.96219660512E-08
  6.58996792546E-08  7.23363135244E-08  7.89358919664E-08  8.57025395321E-08
  9.26404855965E-08  9.97540666017E-08  1.07047728767E-07  1.14526030870E-07
  1.22193647091E-07  1.30055369942E-07  1.38116113254E-07  1.46380915254E-07
  1.54854941713E-07  1.63543489173E-07  1.72451988259E-07  1.81586007074E-07
  1.90951254675E-07  2.00553584648E-07  2.10398998762E-07  2.20493650721E-07
  2.30843850011E-07  2.41456065843E-07  2.52336931198E-07  2.63493246971E-07
  2.74931986222E-07  2.86660298537E-07  2.98685514490E-07  3.11015150236E-07
  3.23656912196E-07  3.36618701883E-07  3.49908620839E-07  3.63534975695E-07
  3.77506283367E-07  3.91831276376E-07  4.06518908309E-07  4.21578359415E-07
  4.37019042341E-07  4.52850608017E-07  4.69082951685E-07  4.85726219090E-07
  5.02790812815E-07  5.20287398787E-07  5.38226912941E-07  5.56620568059E-07
  5.75479860772E-07  5.94816578754E-07  6.14642808082E-07  6.34970940795E-07
  6.55813682637E-07  6.77184061002E-07  6.99095433070E-07  7.21561494163E-07
  7.44596286301E-07  7.68214206977E-07  7.92430018163E-07  8.17258855526E-07
  8.42716237901E-07  8.68818076978E-07  8.95580687257E-07  9.23020796241E-07
  9.51155554892E-07  9.80002548348E-07  1.00957980692E-06  1.03990581736E-06
  1.07099953441E-06  1.10288039265E-06  1.13556831866E-06  1.16908374346E-06
  1.20344761527E-06  1.23868141264E-06  1.27480715784E-06  1.31184743064E-06
  1.34982538240E-06  1.38876475059E-06  1.42868987358E-06  1.46962570587E-06
  1.51159783368E-06  1.55463249097E-06  1.59875657580E-06  1.64399766715E-06
  1.69038404219E-06  1.73794469389E-06  1.78670934923E-06  1.83670848770E-06
  1.88797336038E-06  1.94053600949E-06  1.99442928840E-06  2.04968688216E-06
  2.10634332856E-06  2.16443403974E-06  2.22399532427E-06  2.28506440990E-06
  2.34767946679E-06  2.41187963139E-06  2.47770503089E-06  2.54519680832E-06
  2.61439714823E-06  2.68534930308E-06  2.75809762029E-06  2.83268756991E-06
  2.90916577310E-06  2.98758003121E-06  3.06797935573E-06  3.15041399883E-06
  3.23493548486E-06  3.32159664249E-06  3.41045163778E-06  3.50155600798E-06
  3.59496669629E-06  3.69074208744E-06  3.78894204415E-06  3.88962794461E-06
  3.99286272077E-06  4.09871089773E-06  4.20723863404E-06  4.31851376309E-06
  4.43260583543E-06  4.54958616234E-06  4.66952786032E-06  4.79250589685E-06
  4.91859713719E-06  5.04788039247E-06  5.18043646895E-06  5.31634821848E-06
  5.45570059032E-06  5.59858068426E-06  5.74507780499E-06  5.89528351800E-06
  6.04929170673E-06  6.20719863132E-06  6.36910298873E-06  6.53510597447E-06
  6.70531134580E-06  6.87982548662E-06  7.05875747395E-06  7.24221914610E-06
  7.43032517260E-06  7.62319312583E-06  7.82094355453E-06  8.02370005918E-06
  8.23158936918E-06  8.44474142211E-06  8.66328944496E-06  8.88737003734E-06
  9.11712325693E-06  9.35269270696E-06  9.59422562601E-06  9.84187298002E-06
  1.00957895566E-05  1.03561340620E-05  1.06230692199E-05  1.08967618735E-05
  1.11773830896E-05  1.14651082656E-05  1.17601172391E-05  1.20625944003E-05
  1.23727288074E-05  1.26907143043E-05  1.30167496424E-05  1.33510386044E-05
  1.36937901317E-05  1.40452184553E-05  1.44055432292E-05  1.47749896682E-05
  1.51537886884E-05  1.55421770514E-05  1.59403975126E-05  1.63486989728E-05
  1.67673366336E-05  1.71965721573E-05  1.76366738301E-05  1.80879167297E-05
  1.85505828977E-05  1.90249615155E-05  1.95113490851E-05  2.00100496148E-05
  2.05213748084E-05  2.10456442610E-05  2.15831856579E-05  2.21343349801E-05
  2.26994367138E-05  2.32788440660E-05  2.38729191851E-05  2.44820333875E-05
  2.51065673893E-05  2.57469115447E-05  2.64034660895E-05  2.70766413918E-05
  2.77668582080E-05  2.84745479460E-05  2.92001529351E-05  2.99441267019E-05
  3.07069342543E-05  3.14890523719E-05  3.22909699038E-05  3.31131880747E-05
  3.39562207977E-05  3.48205949957E-05  3.57068509307E-05  3.66155425415E-05
  3.75472377900E-05  3.85025190159E-05  3.94819833013E-05  4.04862428430E-05
  4.15159253361E-05  4.25716743657E-05  4.36541498091E-05  4.47640282488E-05
  4.59020033951E-05  4.70687865193E-05  4.82651068989E-05  4.94917122731E-05
  5.07493693102E-05  5.20388640868E-05  5.33610025790E-05  5.47166111666E-05
  5.61065371489E-05  5.75316492750E-05  5.89928382863E-05  6.04910174735E-05
  6.20271232475E-05  6.36021157242E-05  6.52169793253E-05  6.68727233931E-05
  6.85703828216E-05  7.03110187031E-05  7.20957189917E-05  7.39255991832E-05
  7.58018030123E-05  7.77255031675E-05  7.96979020239E-05  8.17202323951E-05
  8.37937583035E-05  8.59197757701E-05  8.80996136251E-05  9.03346343381E-05
  9.26262348698E-05  9.49758475452E-05  9.73849409487E-05  9.98550208420E-05
  1.02387631106E-04  1.04984354703E-04  1.07646814672E-04  1.10376675135E-04
  1.13175642345E-04  1.16045465747E-04  1.18987939075E-04  1.22004901470E-04
  1.25098238631E-04  1.28269883995E-04  1.31521819944E-04  1.34856079044E-04
  1.38274745314E-04  1.41779955533E-04  1.45373900571E-04  1.49058826761E-04
  1.52837037302E-04  1.56710893698E-04  1.60682817235E-04  1.64755290496E-04
  1.68930858907E-04  1.73212132337E-04  1.77601786719E-04  1.82102565731E-04
  1.86717282507E-04  1.91448821393E-04  1.96300139757E-04  2.01274269830E-04
  2.06374320605E-04  2.11603479780E-04  2.16965015750E-04  2.22462279649E-04
  2.28098707447E-04  2.33877822093E-04  2.39803235723E-04  2.45878651914E-04
  2.52107867997E-04  2.58494777437E-04  2.65043372259E-04  2.71757745547E-04
  2.78642094005E-04  2.85700720574E-04  2.92938037125E-04  3.00358567217E-04
  3.07966948923E-04  3.15767937728E-04  3.23766409506E-04  3.31967363560E-04
  3.40375925755E-04  3.48997351715E-04  3.57837030112E-04  3.66900486033E-04
  3.76193384434E-04  3.85721533677E-04  3.95490889167E-04  4.05507557069E-04
  4.15777798125E-04  4.26308031572E-04  4.37104839148E-04  4.48174969209E-04
  4.59525340946E-04  4.71163048712E-04  4.83095366453E-04  4.95329752255E-04
  5.07873853009E-04  5.20735509185E-04  5.33922759737E-04  5.47443847127E-04
  5.61307222473E-04  5.75521550837E-04  5.90095716637E-04  6.05038829201E-04
  6.20360228460E-04  6.36069490788E-04  6.52176434985E-04  6.68691128416E-04
  6.85623893301E-04  7.02985313170E-04  7.20786239476E-04  7.39037798377E-04
  7.57751397691E-04  7.76938734027E-04  7.96611800095E-04  8.16782892201E-04
  8.37464617936E-04  8.58669904049E-04  8.80412004537E-04  9.02704508919E-04
  9.25561350736E-04  9.48996816259E-04  9.73025553416E-04  9.97662580950E-04
  1.02292329781E-03  1.04882349275E-03  1.07537935426E-03  1.10260748059E-03
  1.13052489023E-03  1.15914903246E-03  1.18849779830E-03  1.21858953168E-03
  1.24944304092E-03  1.28107761047E-03  1.31351301295E-03  1.34676952156E-03
  1.38086792270E-03  1.41582952896E-03  1.45167619251E-03  1.48843031866E-03
  1.52611487994E-03  1.56475343044E-03  1.60437012050E-03  1.64498971184E-03
  1.68663759303E-03  1.72933979536E-03  1.77312300908E-03  1.81801460014E-03
  1.86404262723E-03  1.91123585938E-03  1.95962379388E-03  2.00923667478E-03
  2.06010551174E-03  2.11226209944E-03  2.16573903745E-03  2.22056975058E-03
  2.27678850982E-03  2.33443045373E-03  2.39353161040E-03  2.45412891998E-03
  2.51626025774E-03  2.57996445781E-03  2.64528133739E-03  2.71225172164E-03
  2.78091746924E-03  2.85132149852E-03  2.92350781429E-03  2.99752153534E-03
  3.07340892265E-03  3.15121740833E-03  3.23099562519E-03  3.31279343723E-03
  3.39666197075E-03  3.48265364629E-03  3.57082221147E-03  3.66122277450E-03
  3.75391183868E-03  3.84894733769E-03  3.94638867181E-03  4.04629674505E-03
  4.14873400320E-03  4.25376447290E-03  4.36145380159E-03  4.47186929861E-03
  4.58507997725E-03  4.70115659786E-03  4.82017171212E-03  4.94219970834E-03
  5.06731685798E-03  5.19560136336E-03  5.32713340644E-03  5.46199519905E-03
  5.60027103420E-03  5.74204733877E-03  5.88741272759E-03  6.03645805874E-03
  6.18927649041E-03  6.34596353910E-03  6.50661713931E-03  6.67133770478E-03
  6.84022819121E-03  7.01339416066E-03  7.19094384750E-03  7.37298822606E-03
  7.55964108000E-03  7.75101907344E-03  7.94724182385E-03  8.14843197683E-03
  8.35471528278E-03  8.56622067549E-03  8.78308035270E-03  9.00542985879E-03
  9.23340816941E-03  9.46715777845E-03  9.70682478701E-03  9.95255899478E-03
  1.02045139936E-02  1.04628472636E-02  1.07277202715E-02  1.09992985715E-02
  1.12777519089E-02  1.15632543261E-02  1.18559842714E-02  1.21561247106E-02
  1.24638632411E-02  1.27793922096E-02  1.31029088320E-02  1.34346153167E-02
  1.37747189910E-02  1.41234324308E-02  1.44809735934E-02  1.48475659536E-02
  1.52234386436E-02  1.56088265960E-02  1.60039706909E-02  1.64091179062E-02
  1.68245214721E-02  1.72504410293E-02  1.76871427914E-02  1.81348997113E-02
  1.85939916516E-02  1.90647055597E-02  1.95473356470E-02  2.00421835732E-02
  2.05495586343E-02  2.10697779563E-02  2.16031666930E-02  2.21500582300E-02
  2.27107943921E-02  2.32857256577E-02  2.38752113776E-02  2.44796199995E-02
  2.50993292986E-02  2.57347266132E-02  2.63862090875E-02  2.70541839191E-02
  2.77390686141E-02  2.84412912476E-02  2.91612907318E-02  2.98995170897E-02
  3.06564317368E-02  3.14325077695E-02  3.22282302604E-02  3.30440965621E-02
  3.38806166176E-02  3.47383132791E-02  3.56177226349E-02  3.65193943446E-02
  3.74438919823E-02  3.83917933891E-02  3.93636910343E-02  4.03601923855E-02
  4.13819202885E-02  4.24295133565E-02  4.35036263693E-02  4.46049306825E-02
  4.57341146471E-02  4.68918840398E-02  4.80789625043E-02  4.92960920031E-02
  5.05440332819E-02  5.18235663446E-02  5.31354909410E-02  5.44806270667E-02
  5.58598154755E-02  5.72739182051E-02  5.87238191158E-02  6.02104244427E-02
  6.17346633627E-02  6.32974885746E-02  6.48998768952E-02  6.65428298692E-02
  6.82273743957E-02  6.99545633700E-02  7.17254763413E-02  7.35412201879E-02
  7.54029298089E-02  7.73117688333E-02  7.92689303476E-02  8.12756376416E-02
  8.33331449725E-02  8.54427383496E-02  8.76057363372E-02  8.98234908796E-02
  9.20973881455E-02  9.44288493948E-02  9.68193318666E-02  9.92703296902E-02
  1.01783374819E-01  1.04360037989E-01  1.07001929697E-01  1.09710701212E-01
  1.12488045604E-01  1.15335698804E-01  1.18255440689E-01  1.21249096191E-01
  1.24318536443E-01  1.27465679944E-01  1.30692493763E-01  1.34000994763E-01
  1.37393250864E-01  1.40871382337E-01  1.44437563128E-01  1.48094022215E-01
  1.51843045005E-01  1.55686974759E-01  1.59628214057E-01  1.63669226303E-01
  1.67812537262E-01  1.72060736636E-01  1.76416479690E-01  1.80882488905E-01
  1.85461555680E-01  1.90156542083E-01  1.94970382633E-01  1.99906086136E-01
  2.04966737569E-01  2.10155500002E-01  2.15475616582E-01  2.20930412554E-01
  2.26523297344E-01  2.32257766686E-01  2.38137404811E-01  2.44165886684E-01
  2.50346980301E-01  2.56684549049E-01  2.63182554113E-01  2.69845056959E-01
  2.76676221867E-01  2.83680318538E-01  2.90861724761E-01  2.98224929148E-01
  3.05774533941E-01  3.13515257889E-01  3.21451939197E-01  3.29589538549E-01
  3.37933142210E-01  3.46487965202E-01  3.55259354570E-01  3.64252792717E-01
  3.73473900834E-01  3.82928442415E-01  3.92622326855E-01  4.02561613148E-01
  4.12752513672E-01  4.23201398071E-01  4.33914797238E-01  4.44899407395E-01
  4.56162094283E-01  4.67709897447E-01  4.79550034640E-01  4.91689906332E-01
  5.04137100340E-01  5.16899396565E-01  5.29984771856E-01  5.43401405000E-01
  5.57157681829E-01  5.71262200464E-01  5.85723776688E-01  6.00551449458E-01
  6.15754486550E-01  6.31342390359E-01  6.47324903831E-01  6.63712016559E-01
  6.80513971020E-01  6.97741268983E-01  7.15404678071E-01  7.33515238488E-01
  7.52084269925E-01  7.71123378631E-01  7.90644464669E-01  8.10659729353E-01
  8.31181682874E-01  8.52223152122E-01  8.73797288700E-01  8.95917577146E-01
  9.18597843359E-01  9.41852263246E-01  9.65695371574E-01  9.90142071064E-01
  1.01520764170E+00  1.04090775027E+00  1.06725846019E+00  1.09427624151E+00
  1.12197798122E+00  1.15038099381E+00  1.17950303209E+00  1.20936229827E+00
  1.23997745538E+00  1.27136763888E+00  1.30355246865E+00  1.33655206128E+00
  1.37038704256E+00  1.40507856048E+00  1.44064829835E+00  1.47711848843E+00
  1.51451192576E+00  1.55285198246E+00  1.59216262233E+00  1.63246841577E+00
  1.67379455524E+00  1.71616687091E+00  1.75961184685E+00  1.80415663760E+00
  1.84982908509E+00  1.89665773610E+00  1.94467186005E+00  1.99390146734E+00
  2.04437732806E+00  2.09613099129E+00  2.14919480474E+00  2.20360193502E+00
  2.25938638836E+00  2.31658303186E+00  2.37522761529E+00  2.43535679341E+00
  2.49700814892E+00  2.56022021593E+00  2.62503250403E+00  2.69148552302E+00
  2.75962080820E+00  2.82948094633E+00  2.90110960227E+00  2.97455154628E+00
  3.04985268195E+00  3.12706007494E+00  3.20622198239E+00  3.28738788307E+00
  3.37060850831E+00  3.45593587371E+00  3.54342331164E+00  3.63312550462E+00
  3.72509851941E+00  3.81939984217E+00  3.91608841427E+00  4.01522466923E+00
  4.11687057043E+00  4.22108964988E+00  4.32794704788E+00  4.43750955378E+00
  4.54984564773E+00  4.66502554344E+00  4.78312123209E+00  4.90420652733E+00
  5.02835711142E+00  5.15565058250E+00  5.28616650315E+00  5.41998645006E+00
  5.55719406505E+00  5.69787510735E+00  5.84211750720E+00  5.99001142078E+00
  6.14164928661E+00  6.29712588328E+00  6.45653838874E+00  6.61998644099E+00
  6.78757220039E+00  6.95940041348E+00  7.13557847849E+00  7.31621651245E+00
  7.50142742002E+00  7.69132696403E+00  7.88603383788E+00  8.08566973972E+00
  8.29035944847E+00  8.50023090186E+00  8.71541527640E+00  8.93604706931E+00
  9.16226418265E+00  9.39420800948E+00  9.63202352224E+00  9.87585936337E+00
  1.01258679382E+01  1.03822055102E+01  1.06450322988E+01  1.09145125792E+01
  1.11908147854E+01  1.14741116152E+01  1.17645801384E+01  1.20624019073E+01
  1.23677630702E+01  1.26808544877E+01  1.30018718522E+01  1.33310158099E+01
  1.36684920866E+01  1.40145116160E+01  1.43692906714E+01  1.47330510013E+01
  1.51060199679E+01  1.54884306888E+01  1.58805221832E+01  1.62825395210E+01
  1.66947339762E+01  1.71173631837E+01  1.75506913005E+01  1.79949891709E+01
  1.84505344953E+01  1.89176120046E+01  1.93965136373E+01  1.98875387225E+01
  2.03909941670E+01  2.09071946467E+01  2.14364628038E+01  2.19791294481E+01
  2.25355337638E+01  2.31060235219E+01  2.36909552970E+01  2.42906946904E+01
  2.49056165589E+01  2.55361052486E+01  2.61825548354E+01  2.68453693715E+01
  2.75249631374E+01  2.82217609015E+01  2.89361981849E+01  2.96687215342E+01
  3.04197888004E+01  3.11898694250E+01  3.19794447334E+01  3.27890082359E+01
  3.36190659360E+01  3.44701366469E+01  3.53427523154E+01  3.62374583547E+01
  3.71548139852E+01  3.80953925840E+01  3.90597820435E+01  4.00485851384E+01
  4.10624199027E+01  4.21019200164E+01  4.31677352007E+01  4.42605316248E+01
  4.53809923221E+01  4.65298176171E+01  4.77077255628E+01  4.89154523901E+01
  5.01537529676E+01  5.14234012735E+01  5.27251908793E+01  5.40599354459E+01
  5.54284692320E+01  5.68316476159E+01  5.82703476296E+01  5.97454685076E+01
  6.12579322485E+01  6.28086841912E+01  6.43986936062E+01  6.60289543013E+01
  6.77004852423E+01  6.94143311905E+01  7.11715633555E+01  7.29732800645E+01
  7.48206074492E+01  7.67147001492E+01  7.86567420343E+01  8.06479469437E+01
  8.26895594454E+01  8.47828556136E+01  8.69291438267E+01  8.91297655845E+01
  9.13860963473E+01  9.36995463954E+01  9.60715617103E+01  9.85036248787E+01
  1.00997256019E+02  1.03554013733E+02  1.06175496076E+02  1.08863341561E+02
  1.11619230178E+02  1.14444884447E+02  1.17342070495E+02  1.20312599157E+02
  1.23358327110E+02  1.26481158034E+02  1.29683043798E+02  1.32965985687E+02
  1.36332035645E+02  1.39783297563E+02  1.43321928593E+02  1.46950140494E+02
  1.50670201016E+02
  </PP_R>
  <PP_RAB>
  4.70901959788E-09  4.82822899655E-09  4.95045619552E-09  5.07577759076E-09
  5.20427151222E-09  5.33601827280E-09  5.47110021849E-09  5.60960177992E-09
  5.75160952508E-09  5.89721221341E-09  6.04650085136E-09  6.19956874916E-09
  6.35651157924E-09  6.51742743599E-09  6.68241689704E-09  6.85158308618E-09
  7.02503173779E-09  7.20287126292E-09  7.38521281706E-09  7.57217036963E-09
  7.76386077516E-09  7.96040384642E-09  8.16192242922E-09  8.36854247922E-09
  8.58039314070E-09  8.79760682720E-09  9.02031930436E-09  9.24866977472E-09
  9.48280096476E-09  9.72285921409E-09  9.96899456694E-09  1.02213608659E-08
  1.04801158481E-08  1.07454212440E-08  1.10174428778E-08  1.12963507722E-08
  1.15823192534E-08  1.18755270613E-08  1.21761574601E-08  1.24843983538E-08
  1.28004424028E-08  1.31244871450E-08  1.34567351189E-08  1.37973939903E-08
  1.41466766820E-08  1.45048015073E-08  1.48719923056E-08  1.52484785833E-08
  1.56344956564E-08  1.60302847983E-08  1.64360933900E-08  1.68521750751E-08
  1.72787899182E-08  1.77162045675E-08  1.81646924214E-08  1.86245337993E-08
  1.90960161172E-08  1.95794340667E-08  2.00750897999E-08  2.05832931177E-08
  2.11043616638E-08  2.16386211229E-08  2.21864054246E-08  2.27480569520E-08
  2.33239267554E-08  2.39143747723E-08  2.45197700519E-08  2.51404909860E-08
  2.57769255454E-08  2.64294715223E-08  2.70985367793E-08  2.77845395039E-08
  2.84879084702E-08  2.92090833066E-08  2.99485147709E-08  3.07066650318E-08
  3.14840079580E-08  3.22810294141E-08  3.30982275644E-08  3.39361131843E-08
  3.47952099797E-08  3.56760549140E-08  3.65791985440E-08  3.75052053638E-08
  3.84546541579E-08  3.94281383626E-08  4.04262664373E-08  4.14496622445E-08
  4.24989654399E-08  4.35748318722E-08  4.46779339929E-08  4.58089612767E-08
  4.69686206525E-08  4.81576369452E-08  4.93767533286E-08  5.06267317903E-08
  5.19083536073E-08  5.32224198351E-08  5.45697518078E-08  5.59511916518E-08
  5.73676028120E-08  5.88198705914E-08  6.03089027046E-08  6.18356298453E-08
  6.34010062675E-08  6.50060103825E-08  6.66516453702E-08  6.83389398059E-08
  7.00689483036E-08  7.18427521749E-08  7.36614601050E-08  7.55262088456E-08
  7.74381639253E-08  7.93985203782E-08  8.14085034911E-08  8.34693695686E-08
  8.55824067194E-08  8.77489356602E-08  8.99703105424E-08  9.22479197974E-08
  9.45831870052E-08  9.69775717838E-08  9.94325707017E-08  1.01949718213E-07
  1.04530587617E-07  1.07176792041E-07  1.09889985449E-07  1.12671863675E-07
  1.15524165484E-07  1.18448673656E-07  1.21447216106E-07  1.24521667019E-07
  1.27673948028E-07  1.30906029410E-07  1.34219931322E-07  1.37617725060E-07
  1.41101534356E-07  1.44673536704E-07  1.48335964723E-07  1.52091107548E-07
  1.55941312266E-07  1.59888985381E-07  1.63936594316E-07  1.68086668960E-07
  1.72341803243E-07  1.76704656763E-07  1.81177956447E-07  1.85764498250E-07
  1.90467148913E-07  1.95288847744E-07  2.00232608461E-07  2.05301521077E-07
  2.10498753827E-07  2.15827555151E-07  2.21291255722E-07  2.26893270531E-07
  2.32637101021E-07  2.38526337272E-07  2.44564660248E-07  2.50755844098E-07
  2.57103758514E-07  2.63612371148E-07  2.70285750095E-07  2.77128066435E-07
  2.84143596838E-07  2.91336726238E-07  2.98711950576E-07  3.06273879607E-07
  3.14027239782E-07  3.21976877205E-07  3.30127760658E-07  3.38484984707E-07
  3.47053772891E-07  3.55839480980E-07  3.64847600328E-07  3.74083761304E-07
  3.83553736807E-07  3.93263445882E-07  4.03218957413E-07  4.13426493917E-07
  4.23892435439E-07  4.34623323531E-07  4.45625865349E-07  4.56906937839E-07
  4.68473592039E-07  4.80333057484E-07  4.92492746726E-07  5.04960259967E-07
  5.17743389808E-07  5.30850126122E-07  5.44288661045E-07  5.58067394100E-07
  5.72194937442E-07  5.86680121247E-07  6.01531999225E-07  6.16759854285E-07
  6.32373204331E-07  6.48381808215E-07  6.64795671836E-07  6.81625054392E-07
  6.98880474797E-07  7.16572718249E-07  7.34712842976E-07  7.53312187146E-07
  7.72382375956E-07  7.91935328895E-07  8.11983267193E-07  8.32538721466E-07
  8.53614539541E-07  8.75223894491E-07  8.97380292866E-07  9.20097583136E-07
  9.43389964347E-07  9.67271994996E-07  9.91758602130E-07  1.01686509067E-06
  1.04260715300E-06  1.06900087874E-06  1.09606276483E-06  1.12380972582E-06
  1.15225910447E-06  1.18142868258E-06  1.21133669207E-06  1.24200182643E-06
  1.27344325235E-06  1.30568062177E-06  1.33873408407E-06  1.37262429876E-06
  1.40737244832E-06  1.44300025147E-06  1.47952997676E-06  1.51698445644E-06
  1.55538710078E-06  1.59476191270E-06  1.63513350273E-06  1.67652710443E-06
  1.71896859014E-06  1.76248448717E-06  1.80710199439E-06  1.85284899918E-06
  1.89975409491E-06  1.94784659878E-06  1.99715657020E-06  2.04771482948E-06
  2.09955297718E-06  2.15270341385E-06  2.20719936022E-06  2.26307487805E-06
  2.32036489134E-06  2.37910520823E-06  2.43933254331E-06  2.50108454065E-06
  2.56439979724E-06  2.62931788718E-06  2.69587938639E-06  2.76412589797E-06
  2.83410007822E-06  2.90584566328E-06  2.97940749647E-06  3.05483155634E-06
  3.13216498537E-06  3.21145611948E-06  3.29275451820E-06  3.37611099569E-06
  3.46157765245E-06  3.54920790792E-06  3.63905653388E-06  3.73117968863E-06
  3.82563495214E-06  3.92248136204E-06  4.02177945047E-06  4.12359128199E-06
  4.22798049228E-06  4.33501232802E-06  4.44475368758E-06  4.55727316288E-06
  4.67264108226E-06  4.79092955443E-06  4.91221251352E-06  5.03656576534E-06
  5.16406703472E-06  5.29479601410E-06  5.42883441335E-06  5.56626601083E-06
  5.70717670577E-06  5.85165457193E-06  5.99978991268E-06  6.15167531744E-06
  6.30740571953E-06  6.46707845552E-06  6.63079332606E-06  6.79865265828E-06
  6.97076136973E-06  7.14722703395E-06  7.32815994773E-06  7.51367320003E-06
  7.70388274267E-06  7.89890746281E-06  8.09886925724E-06  8.30389310860E-06
  8.51410716347E-06  8.72964281247E-06  8.95063477240E-06  9.17722117043E-06
  9.40954363044E-06  9.64774736153E-06  9.89198124877E-06  1.01423979463E-05
  1.03991539727E-05  1.06624098089E-05  1.09323299983E-05  1.12090832498E-05
  1.14928425433E-05  1.17837852374E-05  1.20820931809E-05  1.23879528260E-05
  1.27015553448E-05  1.30230967492E-05  1.33527780130E-05  1.36908051978E-05
  1.40373895814E-05  1.43927477905E-05  1.47571019355E-05  1.51306797496E-05
  1.55137147311E-05  1.59064462893E-05  1.63091198942E-05  1.67219872300E-05
  1.71453063521E-05  1.75793418489E-05  1.80243650065E-05  1.84806539790E-05
  1.89484939619E-05  1.94281773703E-05  1.99200040220E-05  2.04242813246E-05
  2.09413244680E-05  2.14714566208E-05  2.20150091330E-05  2.25723217426E-05
  2.31437427880E-05  2.37296294261E-05  2.43303478550E-05  2.49462735433E-05
  2.55777914647E-05  2.62252963384E-05  2.68891928760E-05  2.75698960345E-05
  2.82678312754E-05  2.89834348311E-05  2.97171539771E-05  3.04694473117E-05
  3.12407850427E-05  3.20316492813E-05  3.28425343434E-05  3.36739470587E-05
  3.45264070870E-05  3.54004472437E-05  3.62966138323E-05  3.72154669861E-05
  3.81575810182E-05  3.91235447806E-05  4.01139620321E-05  4.11294518156E-05
  4.21706488454E-05  4.32382039035E-05  4.43327842466E-05  4.54550740230E-05
  4.66057747003E-05  4.77856055040E-05  4.89953038667E-05  5.02356258892E-05
  5.15073468132E-05  5.28112615057E-05  5.41481849557E-05  5.55189527841E-05
  5.69244217652E-05  5.83654703630E-05  5.98429992797E-05  6.13579320190E-05
  6.29112154632E-05  6.45038204650E-05  6.61367424543E-05  6.78110020606E-05
  6.95276457507E-05  7.12877464826E-05  7.30924043768E-05  7.49427474030E-05
  7.68399320859E-05  7.87851442278E-05  8.07795996494E-05  8.28245449505E-05
  8.49212582883E-05  8.70710501769E-05  8.92752643063E-05  9.15352783821E-05
  9.38525049866E-05  9.62283924618E-05  9.86644258149E-05  1.01162127646E-04
  1.03723059100E-04  1.06348820842E-04  1.09041054059E-04  1.11801441485E-04
  1.14631708451E-04  1.17533623966E-04  1.20509001823E-04  1.23559701728E-04
  1.26687630469E-04  1.29894743103E-04  1.33183044181E-04  1.36554588996E-04
  1.40011484874E-04  1.43555892489E-04  1.47190027209E-04  1.50916160488E-04
  1.54736621280E-04  1.58653797497E-04  1.62670137502E-04  1.66788151639E-04
  1.71010413800E-04  1.75339563036E-04  1.79778305207E-04  1.84329414671E-04
  1.88995736020E-04  1.93780185856E-04  1.98685754616E-04  2.03715508440E-04
  2.08872591089E-04  2.14160225907E-04  2.19581717837E-04  2.25140455489E-04
  2.30839913255E-04  2.36683653481E-04  2.42675328695E-04  2.48818683889E-04
  2.55117558860E-04  2.61575890611E-04  2.68197715808E-04  2.74987173308E-04
  2.81948506743E-04  2.89086067173E-04  2.96404315805E-04  3.03907826784E-04
  3.11601290047E-04  3.19489514260E-04  3.27577429820E-04  3.35870091937E-04
  3.44372683795E-04  3.53090519791E-04  3.62029048855E-04  3.71193857860E-04
  3.80590675110E-04  3.90225373921E-04  4.00103976293E-04  4.10232656675E-04
  4.20617745822E-04  4.31265734752E-04  4.42183278806E-04  4.53377201803E-04
  4.64854500309E-04  4.76622348011E-04  4.88688100195E-04  5.01059298351E-04
  5.13743674878E-04  5.26749157927E-04  5.40083876346E-04  5.53756164769E-04
  5.67774568821E-04  5.82147850461E-04  5.96884993459E-04  6.11995209007E-04
  6.27487941484E-04  6.43372874350E-04  6.59659936206E-04  6.76359306997E-04
  6.93481424371E-04  7.11036990210E-04  7.29036977315E-04  7.47492636262E-04
  7.66415502441E-04  7.85817403257E-04  8.05710465530E-04  8.26107123073E-04
  8.47020124460E-04  8.68462540997E-04  8.90447774893E-04  9.12989567635E-04
  9.36102008578E-04  9.59799543748E-04  9.84096984877E-04  1.00900951866E-03
  1.03455271623E-03  1.06074254293E-03  1.08759536825E-03  1.11512797608E-03
  1.14335757520E-03  1.17230181001E-03  1.20197877163E-03  1.23240700910E-03
  1.26360554107E-03  1.29559386764E-03  1.32839198255E-03  1.36202038569E-03
  1.39650009591E-03  1.43185266415E-03  1.46810018691E-03  1.50526532009E-03
  1.54337129309E-03  1.58244192339E-03  1.62250163140E-03  1.66357545575E-03
  1.70568906891E-03  1.74886879327E-03  1.79314161755E-03  1.83853521372E-03
  1.88507795424E-03  1.93279892985E-03  1.98172796771E-03  2.03189565006E-03
  2.08333333333E-03  2.13607316776E-03  2.19014811745E-03  2.24559198101E-03
  2.30243941266E-03  2.36072594389E-03  2.42048800568E-03  2.48176295128E-03
  2.54458907950E-03  2.60900565873E-03  2.67505295143E-03  2.74277223931E-03
  2.81220584912E-03  2.88339717913E-03  2.95639072624E-03  3.03123211379E-03
  3.10796812009E-03  3.18664670763E-03  3.26731705310E-03  3.35002957810E-03
  3.43483598063E-03  3.52178926746E-03  3.61094378722E-03  3.70235526440E-03
  3.79608083415E-03  3.89217907798E-03  3.99071006045E-03  4.09173536660E-03
  4.19531814056E-03  4.30152312493E-03  4.41041670128E-03  4.52206693163E-03
  4.63654360103E-03  4.75391826110E-03  4.87426427485E-03  4.99765686243E-03
  5.12417314824E-03  5.25389220908E-03  5.38689512357E-03  5.52326502288E-03
  5.66308714262E-03  5.80644887618E-03  5.95343982930E-03  6.10415187611E-03
  6.25867921656E-03  6.41711843525E-03  6.57956856185E-03  6.74613113300E-03
  6.91691025570E-03  7.09201267248E-03  7.27154782805E-03  7.45562793771E-03
  7.64436805754E-03  7.83788615625E-03  8.03630318895E-03  8.23974317275E-03
  8.44833326426E-03  8.66220383908E-03  8.88148857327E-03  9.10632452694E-03
  9.33685222987E-03  9.57321576939E-03  9.81556288040E-03  1.00640450377E-02
  1.03188175508E-02  1.05800396608E-02  1.08478746400E-02  1.11224898939E-02
  1.14040570661E-02  1.16927521452E-02  1.19887555750E-02  1.22922523673E-02
  1.26034322175E-02  1.29224896231E-02  1.32496240054E-02  1.35850398340E-02
  1.39289467547E-02  1.42815597206E-02  1.46430991262E-02  1.50137909455E-02
  1.53938668728E-02  1.57835644680E-02  1.61831273048E-02  1.65928051230E-02
  1.70128539845E-02  1.74435364336E-02  1.78851216608E-02  1.83378856712E-02
  1.88021114572E-02  1.92780891748E-02  1.97661163257E-02  2.02664979428E-02
  2.07795467809E-02  2.13055835121E-02  2.18449369265E-02  2.23979441377E-02
  2.29649507930E-02  2.35463112902E-02  2.41423889984E-02  2.47535564856E-02
  2.53801957515E-02  2.60226984658E-02  2.66814662139E-02  2.73569107469E-02
  2.80494542396E-02  2.87595295543E-02  2.94875805112E-02  3.02340621658E-02
  3.09994410935E-02  3.17841956810E-02  3.25888164254E-02  3.34138062409E-02
  3.42596807731E-02  3.51269687210E-02  3.60162121678E-02  3.69279669197E-02
  3.78628028530E-02  3.88213042706E-02  3.98040702671E-02  4.08117151033E-02
  4.18448685900E-02  4.29041764817E-02  4.39903008803E-02  4.51039206490E-02
  4.62457318363E-02  4.74164481115E-02  4.86168012103E-02  4.98475413924E-02
  5.11094379106E-02  5.24032794913E-02  5.37298748275E-02  5.50900530845E-02
  5.64846644180E-02  5.79145805056E-02  5.93806950912E-02  6.08839245442E-02