<PP_INFO>
Generated using Vanderbilt code, version   7  3  6                              
Author: kfg        Generation date:   22    1   20                              
Automatically converted from original format                                    
    1        The Pseudo was generated with a Scalar-Relativistic Calculation
  1.60000000000E+00    Local Potential cutoff radius
nl pn  l   occ               Rcut            Rcut US             E pseu
2S  2  0  2.00      0.00000000000      1.37000000000     -4.15810995100
2P  2  1  6.00      0.00000000000      1.47000000000     -2.10614770100
3S  3  0  1.00      0.00000000000      1.37000000000     -0.19882545600
3P  3  1  0.00      0.00000000000      1.47000000000     -0.05362472300
</PP_INFO>


<PP_HEADER>
   0                   Version Number
  Na                   Element
   US                  Ultrasoft pseudopotential
    F                  Nonlinear Core Correction
SLA  PW   PSX  PSC     PBEsol  Exchange-Correlation functional
    9.00000000000      Z valence
  -95.06325152270      Total energy
    0.00000    0.00000 Suggested cutoff for wfc and rho
    2                  Max angular momentum component
  819                  Number of points in mesh
    4    5             Number of Wavefunctions, Number of Projectors
 Wavefunctions         nl  l   occ
                       2S  0  2.00
                       2P  1  6.00
                       3S  0  1.00
                       3P  1  0.00
</PP_HEADER>


<PP_MESH>
  <PP_R>
  0.00000000000E+00  5.20186466933E-09  1.05354151697E-08  1.60039851438E-08
  2.16109926260E-08  2.73599421783E-08  3.32544270814E-08  3.92981315803E-08
  4.54948331869E-08  5.18484050416E-08  5.83628183336E-08  6.50421447832E-08
  7.18905591869E-08  7.89123420266E-08  8.61118821452E-08  9.34936794896E-08
  1.01062347923E-07  1.08822618111E-07  1.16779340474E-07  1.24937488222E-07
  1.33302160463E-07  1.41878585391E-07  1.50672123549E-07  1.59688271186E-07
  1.68932663687E-07  1.78411079098E-07  1.88129441737E-07  1.98093825899E-07
  2.08310459646E-07  2.18785728707E-07  2.29526180468E-07  2.40538528059E-07
  2.51829654557E-07  2.63406617283E-07  2.75276652216E-07  2.87447178514E-07
  2.99925803152E-07  3.12720325676E-07  3.25838743081E-07  3.39289254802E-07
  3.53080267850E-07  3.67220402054E-07  3.81718495461E-07  3.96583609849E-07
  4.11825036400E-07  4.27452301501E-07  4.43475172701E-07  4.59903664817E-07
  4.76748046191E-07  4.94018845109E-07  5.11726856384E-07  5.29883148098E-07
  5.48499068525E-07  5.67586253222E-07  5.87156632299E-07  6.07222437882E-07
  6.27796211752E-07  6.48890813186E-07  6.70519426998E-07  6.92695571776E-07
  7.15433108332E-07  7.38746248366E-07  7.62649563349E-07  7.87157993633E-07
  8.12286857783E-07  8.38051862157E-07  8.64469110723E-07  8.91555115120E-07
  9.19326804982E-07  9.47801538521E-07  9.76997113372E-07  1.00693177772E-06
  1.03762424170E-06  1.06909368911E-06  1.10135978937E-06  1.13444270985E-06
  1.16836312844E-06  1.20314224653E-06  1.23880180217E-06  1.27536408377E-06
  1.31285194393E-06  1.35128881379E-06  1.39069871765E-06  1.43110628797E-06
  1.47253678080E-06  1.51501609155E-06  1.55857077118E-06  1.60322804276E-06
  1.64901581856E-06  1.69596271743E-06  1.74409808269E-06  1.79345200053E-06
  1.84405531875E-06  1.89593966607E-06  1.94913747189E-06  2.00368198658E-06
  2.05960730223E-06  2.11694837399E-06  2.17574104189E-06  2.23602205326E-06
  2.29782908571E-06  2.36120077062E-06  2.42617671738E-06  2.49279753807E-06
  2.56110487286E-06  2.63114141606E-06  2.70295094279E-06  2.77657833635E-06
  2.85206961625E-06  2.92947196700E-06  3.00883376758E-06  3.09020462172E-06
  3.17363538883E-06  3.25917821587E-06  3.34688656988E-06  3.43681527145E-06
  3.52902052894E-06  3.62355997363E-06  3.72049269576E-06  3.81987928143E-06
  3.92178185050E-06  4.02626409539E-06  4.13339132089E-06  4.24323048503E-06
  4.35585024084E-06  4.47132097934E-06  4.58971487350E-06  4.71110592337E-06
  4.83557000229E-06  4.96318490437E-06  5.09403039308E-06  5.22818825111E-06
  5.36574233148E-06  5.50677860997E-06  5.65138523885E-06  5.79965260197E-06
  5.95167337126E-06  6.10754256465E-06  6.26735760545E-06  6.43121838327E-06
  6.59922731643E-06  6.77148941598E-06  6.94811235135E-06  7.12920651761E-06
  7.31488510451E-06  7.50526416723E-06  7.70046269886E-06  7.90060270484E-06
  8.10580927920E-06  8.31621068272E-06  8.53193842313E-06  8.75312733729E-06
  8.97991567546E-06  9.21244518776E-06  9.45086121268E-06  9.69531276801E-06
  9.94595264392E-06  1.02029374985E-05  1.04664279556E-05  1.07365887055E-05
  1.10135886072E-05  1.12976007949E-05  1.15888027853E-05  1.18873765893E-05
  1.21935088250E-05  1.25073908352E-05  1.28292188063E-05  1.31591938913E-05
  1.34975223353E-05  1.38444156047E-05  1.42000905190E-05  1.45647693866E-05
  1.49386801437E-05  1.53220564967E-05  1.57151380682E-05  1.61181705472E-05
  1.65314058419E-05  1.69551022379E-05  1.73895245592E-05  1.78349443339E-05
  1.82916399640E-05  1.87598968989E-05  1.92400078146E-05  1.97322727960E-05
  2.02369995247E-05  2.07545034714E-05  2.12851080929E-05  2.18291450343E-05
  2.23869543365E-05  2.29588846483E-05  2.35452934450E-05  2.41465472510E-05
  2.47630218696E-05  2.53951026174E-05  2.60431845656E-05  2.67076727864E-05
  2.73889826065E-05  2.80875398669E-05  2.88037811886E-05  2.95381542456E-05
  3.02911180450E-05  3.10631432138E-05  3.18547122928E-05  3.26663200385E-05
  3.34984737320E-05  3.43516934966E-05  3.52265126223E-05  3.61234778997E-05
  3.70431499612E-05  3.79861036317E-05  3.89529282881E-05  3.99442282271E-05
  4.09606230436E-05  4.20027480174E-05  4.30712545105E-05  4.41668103742E-05
  4.52901003667E-05  4.64418265807E-05  4.76227088826E-05  4.88334853624E-05
  5.00749127946E-05  5.13477671119E-05  5.26528438897E-05  5.39909588434E-05
  5.53629483384E-05  5.67696699129E-05  5.82120028135E-05  5.96908485454E-05
  6.12071314352E-05  6.27617992091E-05  6.43558235851E-05  6.59902008802E-05
  6.76659526336E-05  6.93841262446E-05  7.11457956276E-05  7.29520618834E-05
  7.48040539872E-05  7.67029294942E-05  7.86498752636E-05  8.06461081998E-05
  8.26928760134E-05  8.47914580009E-05  8.69431658443E-05  8.91493444311E-05
  9.14113726947E-05  9.37306644764E-05  9.61086694091E-05  9.85468738234E-05
  1.01046801676E-04  1.03610015504E-04  1.06238117399E-04  1.08932750009E-04
  1.11695597570E-04  1.14528386949E-04  1.17432888733E-04  1.20410918329E-04
  1.23464337104E-04  1.26595053543E-04  1.29805024446E-04  1.33096256149E-04
  1.36470805779E-04  1.39930782540E-04  1.43478349030E-04  1.47115722593E-04
  1.50845176706E-04  1.54669042400E-04  1.58589709714E-04  1.62609629194E-04
  1.66731313420E-04  1.70957338579E-04  1.75290346075E-04  1.79733044177E-04
  1.84288209717E-04  1.88958689822E-04  1.93747403694E-04  1.98657344434E-04
  2.03691580916E-04  2.08853259702E-04  2.14145607008E-04  2.19571930723E-04
  2.25135622478E-04  2.30840159760E-04  2.36689108091E-04  2.42686123254E-04
  2.48834953578E-04  2.55139442284E-04  2.61603529880E-04  2.68231256633E-04
  2.75026765088E-04  2.81994302658E-04  2.89138224282E-04  2.96462995143E-04
  3.03973193460E-04  3.11673513354E-04  3.19568767773E-04  3.27663891510E-04
  3.35963944280E-04  3.44474113886E-04  3.53199719461E-04  3.62146214793E-04
  3.71319191732E-04  3.80724383689E-04  3.90367669213E-04  4.00255075673E-04
  4.10392783019E-04  4.20787127648E-04  4.31444606364E-04  4.42371880438E-04
  4.53575779773E-04  4.65063307170E-04  4.76841642707E-04  4.88918148228E-04
  5.01300371941E-04  5.13996053141E-04  5.27013127040E-04  5.40359729733E-04
  5.54044203283E-04  5.68075100929E-04  5.82461192441E-04  5.97211469593E-04
  6.12335151789E-04  6.27841691823E-04  6.43740781786E-04  6.60042359128E-04
  6.76756612865E-04  6.93893989950E-04  7.11465201802E-04  7.29481230999E-04
  7.47953338147E-04  7.66893068913E-04  7.86312261247E-04  8.06223052775E-04
  8.26637888390E-04  8.47569528029E-04  8.69031054649E-04  8.91035882401E-04
  9.13597765021E-04  9.36730804418E-04  9.60449459495E-04  9.84768555184E-04
  1.00970329171E-03  1.03526925410E-03  1.06148242191E-03  1.08835917922E-03
  1.11591632488E-03  1.14417108300E-03  1.17314111373E-03  1.20284452428E-03
  1.23329988025E-03  1.26452621723E-03  1.29654305269E-03  1.32937039820E-03
  1.36302877192E-03  1.39753921142E-03  1.43292328686E-03  1.46920311443E-03
  1.50640137021E-03  1.54454130432E-03  1.58364675546E-03  1.62374216581E-03
  1.66485259630E-03  1.70700374230E-03  1.75022194963E-03  1.79453423110E-03
  1.83996828331E-03  1.88655250403E-03  1.93431600991E-03  1.98328865469E-03
  2.03350104789E-03  2.08498457387E-03  2.13777141151E-03  2.19189455431E-03
  2.24738783099E-03  2.30428592667E-03  2.36262440449E-03  2.42243972790E-03
  2.48376928344E-03  2.54665140407E-03  2.61112539317E-03  2.67723154906E-03
  2.74501119026E-03  2.81450668125E-03  2.88576145897E-03  2.95882005997E-03
  3.03372814827E-03  3.11053254384E-03  3.18928125195E-03  3.27002349309E-03
  3.35280973380E-03  3.43769171817E-03  3.52472250021E-03  3.61395647698E-03
  3.70544942263E-03  3.79925852323E-03  3.89544241251E-03  3.99406120855E-03
  4.09517655129E-03  4.19885164112E-03  4.30515127834E-03  4.41414190369E-03
  4.52589163986E-03  4.64047033407E-03  4.75794960173E-03  4.87840287121E-03
  5.00190542973E-03  5.12853447040E-03  5.25836914049E-03  5.39149059091E-03
  5.52798202689E-03  5.66792876002E-03  5.81141826157E-03  5.95854021715E-03
  6.10938658276E-03  6.26405164230E-03  6.42263206646E-03  6.58522697317E-03
  6.75193798954E-03  6.92286931538E-03  7.09812778834E-03  7.27782295066E-03
  7.46206711768E-03  7.65097544799E-03  7.84466601545E-03  8.04325988297E-03
  8.24688117818E-03  8.45565717102E-03  8.66971835329E-03  8.88919852018E-03
  9.11423485395E-03  9.34496800963E-03  9.58154220295E-03  9.82410530049E-03
  1.00728089121E-02  1.03278084856E-02  1.05892634040E-02  1.08573370852E-02
  1.11321970840E-02  1.14140151967E-02  1.17029675689E-02  1.19992348053E-02
  1.23030020825E-02  1.26144592649E-02  1.29338010234E-02  1.32612269570E-02
  1.35969417176E-02  1.39411551378E-02  1.42940823622E-02  1.46559439819E-02
  1.50269661720E-02  1.54073808336E-02  1.57974257383E-02  1.61973446767E-02
  1.66073876112E-02  1.70278108321E-02  1.74588771174E-02  1.79008558977E-02
  1.83540234241E-02  1.88186629411E-02  1.92950648634E-02  1.97835269578E-02
  2.02843545290E-02  2.07978606105E-02  2.13243661604E-02  2.18642002617E-02
  2.24177003284E-02  2.29852123159E-02  2.35670909379E-02  2.41636998872E-02
  2.47754120641E-02  2.54026098084E-02  2.60456851392E-02  2.67050399995E-02
  2.73810865075E-02  2.80742472144E-02  2.87849553681E-02  2.95136551844E-02
  3.02608021244E-02  3.10268631792E-02  3.18123171620E-02  3.26176550070E-02
  3.34433800765E-02  3.42900084758E-02  3.51580693750E-02  3.60481053405E-02
  3.69606726737E-02  3.78963417590E-02  3.88556974199E-02  3.98393392850E-02
  4.08478821625E-02  4.18819564245E-02  4.29422084011E-02  4.40293007842E-02
  4.51439130420E-02  4.62867418435E-02  4.74585014938E-02  4.86599243809E-02
  4.98917614331E-02  5.11547825889E-02  5.24497772774E-02  5.37775549125E-02
  5.51389453985E-02  5.65347996487E-02  5.79659901175E-02  5.94334113455E-02
  6.09379805187E-02  6.24806380420E-02  6.40623481263E-02  6.56840993921E-02
  6.73469054866E-02  6.90518057178E-02  7.07998657038E-02  7.25921780391E-02
  7.44298629771E-02  7.63140691309E-02  7.82459741905E-02  8.02267856596E-02
  8.22577416097E-02  8.43401114545E-02  8.64751967428E-02  8.86643319726E-02
  9.09088854246E-02  9.32102600177E-02  9.55698941861E-02  9.79892627777E-02
  1.00469877977E-01  1.03013290249E-01  1.05621089309E-01  1.08294905117E-01
  1.11036408894E-01  1.13847314169E-01  1.16729377851E-01  1.19684401322E-01
  1.22714231568E-01  1.25820762332E-01  1.29005935297E-01  1.32271741299E-01
  1.35620221574E-01  1.39053469030E-01  1.42573629560E-01  1.46182903378E-01
  1.49883546397E-01  1.53677871641E-01  1.57568250685E-01  1.61557115144E-01
  1.65646958187E-01  1.69840336100E-01  1.74139869880E-01  1.78548246876E-01
  1.83068222467E-01  1.87702621785E-01  1.92454341480E-01  1.97326351532E-01
  2.02321697106E-01  2.07443500455E-01  2.12694962872E-01  2.18079366694E-01
  2.23600077348E-01  2.29260545457E-01  2.35064308999E-01  2.41014995514E-01
  2.47116324375E-01  2.53372109112E-01  2.59786259794E-01  2.66362785473E-01
  2.73105796692E-01  2.80019508054E-01  2.87108240851E-01  2.94376425774E-01
  3.01828605673E-01  3.09469438406E-01  3.17303699739E-01  3.25336286343E-01
  3.33572218845E-01  3.42016644970E-01  3.50674842761E-01  3.59552223872E-01
  3.68654336956E-01  3.77986871130E-01  3.87555659531E-01  3.97366682964E-01
  4.07426073637E-01  4.17740118998E-01  4.28315265660E-01  4.39158123435E-01
  4.50275469461E-01  4.61674252441E-01  4.73361596986E-01  4.85344808068E-01
  4.97631375582E-01  5.10228979033E-01  5.23145492334E-01  5.36388988726E-01
  5.49967745826E-01  5.63890250798E-01  5.78165205661E-01  5.92801532727E-01
  6.07808380177E-01  6.23195127779E-01  6.38971392751E-01  6.55147035772E-01
  6.71732167146E-01  6.88737153119E-01  7.06172622362E-01  7.24049472610E-01
  7.42378877476E-01  7.61172293436E-01  7.80441466986E-01  8.00198441987E-01
  8.20455567191E-01  8.41225503962E-01  8.62521234184E-01  8.84356068385E-01
  9.06743654044E-01  9.29697984133E-01  9.53233405854E-01  9.77364629613E-01
  1.00210673821E+00  1.02747519627E+00  1.05348585990E+00  1.08015498662E+00
  1.10749924549E+00  1.13553572757E+00  1.16428195658E+00  1.19375589983E+00
  1.22397597952E+00  1.25496108416E+00  1.28673058046E+00  1.31930432539E+00
  1.35270267859E+00  1.38694651514E+00  1.42205723853E+00  1.45805679412E+00
  1.49496768280E+00  1.53281297507E+00  1.57161632548E+00  1.61140198738E+00
  1.65219482810E+00  1.69402034451E+00  1.73690467890E+00  1.78087463539E+00
  1.82595769662E+00  1.87218204099E+00  1.91957656020E+00  1.96817087738E+00
  2.01799536556E+00  2.06908116665E+00  2.12146021096E+00  2.17516523710E+00
  2.23022981243E+00  2.28668835414E+00  2.34457615062E+00  2.40392938366E+00
  2.46478515094E+00  2.52718148930E+00  2.59115739849E+00  2.65675286554E+00
  2.72400888973E+00  2.79296750829E+00  2.86367182258E+00  2.93616602512E+00
  3.01049542712E+00  3.08670648690E+00  3.16484683884E+00  3.24496532321E+00
  3.32711201667E+00  3.41133826357E+00  3.49769670806E+00  3.58624132699E+00
  3.67702746361E+00  3.77011186223E+00  3.86555270361E+00  3.96340964140E+00
  4.06374383936E+00  4.16661800964E+00  4.27209645193E+00  4.38024509371E+00
  4.49113153138E+00  4.60482507259E+00  4.72139677950E+00  4.84091951322E+00
  4.96346797935E+00  5.08911877466E+00  5.21795043501E+00  5.35004348437E+00
  5.48548048518E+00  5.62434609000E+00  5.76672709434E+00  5.91271249097E+00
  6.06239352551E+00  6.21586375348E+00  6.37321909876E+00  6.53455791358E+00
  6.69998103993E+00  6.86959187267E+00  7.04349642408E+00  7.22180339018E+00
  7.40462421860E+00  7.59207317834E+00  7.78426743108E+00  7.98132710449E+00
  8.18337536729E+00  8.39053850621E+00  8.60294600496E+00  8.82073062515E+00
  9.04402848924E+00  9.27297916567E+00  9.50772575607E+00  9.74841498470E+00
  9.99519729016E+00  1.02482269194E+01  1.05076620243E+01  1.07736647600E+01
  1.10464013871E+01  1.13260423748E+01  1.16127625078E+01  1.19067409955E+01
  1.22081615841E+01  1.25172126711E+01  1.28340874237E+01  1.31589838989E+01
  1.34921051675E+01  1.38336594411E+01  1.41838602024E+01  1.45429263381E+01
  1.49110822763E+01  1.52885581265E+01  1.56755898233E+01  1.60724192742E+01
  1.64792945104E+01  1.68964698423E+01  1.73242060180E+01  1.77627703866E+01
  1.82124370650E+01  1.86734871095E+01  1.91462086915E+01  1.96308972773E+01
  2.01278558131E+01  2.06373949141E+01  2.11598330588E+01  2.16954967882E+01
  2.22447209094E+01  2.28078487055E+01  2.33852321496E+01  2.39772321251E+01
  2.45842186514E+01  2.52065711148E+01  2.58446785058E+01  2.64989396623E+01
  2.71697635188E+01  2.78575693621E+01  2.85627870932E+01  2.92858574962E+01
  3.00272325136E+01  3.07873755289E+01  3.15667616562E+01  3.23658780373E+01
  3.31852241459E+01  3.40253121000E+01  3.48866669819E+01  3.57698271664E+01
  3.66753446575E+01  3.76037854330E+01  3.85557297986E+01  3.95317727505E+01
  4.05325243475E+01  4.15586100917E+01  4.26106713202E+01  4.36893656055E+01
  4.47953671666E+01  4.59293672906E+01  4.70920747644E+01  4.82842163180E+01
  4.95065370787E+01  5.07598010368E+01  5.20447915230E+01  5.33623116983E+01
  5.47131850556E+01  5.60982559348E+01  5.75183900502E+01  5.89744750319E+01
  6.04674209804E+01  6.19981610355E+01  6.35676519596E+01  6.51768747356E+01
  6.68268351801E+01  6.85185645722E+01  7.02531202977E+01  7.20315865105E+01
  7.38550748097E+01  7.57247249351E+01  7.76417054787E+01  7.96072146158E+01
  8.16224808536E+01  8.36887637992E+01  8.58073549465E+01  8.79795784840E+01
  9.02067921222E+01  9.24903879421E+01  9.48317932655E+01  9.72324715467E+01
  9.96939232880E+01  1.02217686977E+02  1.04805340048E+02  1.07458499868E+02
  1.10178824748E+02  1.12968014981E+02  1.15827813901E+02  1.18760008975E+02
  1.21766432921E+02  1.24848964852E+02  1.28009531449E+02  1.31250108172E+02
  1.34572720484E+02  1.37979445128E+02  1.41472411416E+02  1.45053802567E+02
  1.48725857067E+02  1.52490870069E+02  1.56351194829E+02
  </PP_R>
  <PP_RAB>
  5.13711228859E-09  5.26715890533E-09  5.40049766784E-09  5.53721191719E-09
  5.67738710424E-09  5.82111084305E-09  5.96847296563E-09  6.11956557810E-09
  6.27448311827E-09  6.43332241463E-09  6.59618274693E-09  6.76316590817E-09
  6.93437626826E-09  7.10992083926E-09  7.28990934222E-09  7.47445427583E-09
  7.66367098668E-09  7.85767774137E-09  8.05659580043E-09  8.26054949414E-09
  8.46966630018E-09  8.68407692337E-09  8.90391537733E-09  9.12931906824E-09
  9.36042888076E-09  9.59738926604E-09  9.84034833203E-09  1.00894579361E-08
  1.03448737797E-08  1.06067555063E-08  1.08752668003E-08  1.11505754901E-08
  1.14328536525E-08  1.17222777207E-08  1.20190285940E-08  1.23232917514E-08
  1.26352573674E-08  1.29551204305E-08  1.32830808656E-08  1.36193436587E-08
  1.39641189848E-08  1.43176223400E-08  1.46800746751E-08  1.50517025348E-08
  1.54327381986E-08  1.58234198261E-08  1.62239916061E-08  1.66347039090E-08
  1.70558134434E-08  1.74875834163E-08  1.79302836982E-08  1.83841909910E-08
  1.88495890017E-08  1.93267686191E-08  1.98160280961E-08  2.03176732356E-08
  2.08320175824E-08  2.13593826182E-08  2.19000979636E-08  2.24545015830E-08
  2.30229399969E-08  2.36057684977E-08  2.42033513723E-08  2.48160621294E-08
  2.54442837332E-08  2.60884088425E-08  2.67488400567E-08  2.74259901666E-08
  2.81202824132E-08  2.88321507516E-08  2.95620401229E-08  3.03104067315E-08
  3.10777183311E-08  3.18644545163E-08  3.26711070228E-08  3.34981800347E-08
  3.43461904997E-08  3.52156684517E-08  3.61071573429E-08  3.70212143829E-08
  3.79584108869E-08  3.89193326334E-08  3.99045802298E-08  4.09147694878E-08
  4.19505318086E-08  4.30125145774E-08  4.41013815680E-08  4.52178133577E-08
  4.63625077527E-08  4.75361802242E-08  4.87395643559E-08  4.99734123019E-08
  5.12384952573E-08  5.25356039402E-08  5.38655490858E-08  5.52291619530E-08
  5.66272948443E-08  5.80608216383E-08  5.95306383358E-08  6.10376636202E-08
  6.25828394312E-08  6.41671315542E-08  6.57915302232E-08  6.74570507403E-08
  6.91647341100E-08  7.09156476900E-08  7.27108858584E-08  7.45515706973E-08
  7.64388526948E-08  7.83739114635E-08  8.03579564782E-08  8.23922278315E-08
  8.44779970094E-08  8.66165676853E-08  8.88092765357E-08  9.10574940749E-08
  9.33626255120E-08  9.57261116294E-08  9.81494296826E-08  1.00634094324E-07
  1.03181658551E-07  1.05793714673E-07  1.08471895311E-07  1.11217874414E-07
  1.14033368309E-07  1.16920136772E-07  1.19879984126E-07  1.22914760373E-07
  1.26026362346E-07  1.29216734898E-07  1.32487872116E-07  1.35841818566E-07
  1.39280670576E-07  1.42806577538E-07  1.46421743260E-07  1.50128427338E-07
  1.53928946570E-07  1.57825676405E-07  1.61821052425E-07  1.65917571870E-07
  1.70117795199E-07  1.74424347688E-07  1.78839921072E-07  1.83367275229E-07
  1.88009239901E-07  1.92768716469E-07  1.97648679760E-07  2.02652179910E-07
  2.07782344269E-07  2.13042379357E-07  2.18435572867E-07  2.23965295721E-07
  2.29635004175E-07  2.35448241983E-07  2.41408642606E-07  2.47519931489E-07
  2.53785928387E-07  2.60210549751E-07  2.66797811180E-07  2.73551829925E-07
  2.80476827470E-07  2.87577132161E-07  2.94857181922E-07  3.02321527020E-07
  3.09974832914E-07  3.17821883168E-07  3.25867582446E-07  3.34116959571E-07
  3.42575170672E-07  3.51247502406E-07  3.60139375263E-07  3.69256346953E-07
  3.78604115881E-07  3.88188524706E-07  3.98015563995E-07  4.08091375968E-07
  4.18422258335E-07  4.29014668235E-07  4.39875226268E-07  4.51010720637E-07
  4.62428111388E-07  4.74134534761E-07  4.86137307654E-07  4.98443932188E-07
  5.11062100406E-07  5.23999699074E-07  5.37264814611E-07  5.50865738146E-07
  5.64810970700E-07  5.79109228497E-07  5.93769448413E-07  6.08800793563E-07
  6.24212659028E-07  6.40014677724E-07  6.56216726428E-07  6.72828931947E-07
  6.89861677452E-07  7.07325608962E-07  7.25231642003E-07  7.43590968428E-07
  7.62415063415E-07  7.81715692635E-07  8.01504919610E-07  8.21795113251E-07
  8.42598955589E-07  8.63929449703E-07  8.85799927847E-07  9.08224059781E-07
  9.31215861318E-07  9.54789703081E-07  9.78960319490E-07  1.00374281797E-06
  1.02915268838E-06  1.05520581272E-06  1.08191847505E-06  1.10930737164E-06
  1.13738962146E-06  1.16618277681E-06  1.19570483435E-06  1.22597424635E-06
  1.25700993215E-06  1.28883129009E-06  1.32145820953E-06  1.35491108337E-06
  1.38921082075E-06  1.42437886011E-06  1.46043718263E-06  1.49740832592E-06
  1.53531539817E-06  1.57418209252E-06  1.61403270191E-06  1.65489213429E-06
  1.69678592813E-06  1.73974026840E-06  1.78378200298E-06  1.82893865937E-06
  1.87523846197E-06  1.92271034964E-06  1.97138399388E-06  2.02128981728E-06
  2.07245901262E-06  2.12492356231E-06  2.17871625840E-06  2.23387072307E-06
  2.29042142966E-06  2.34840372420E-06  2.40785384752E-06  2.46880895787E-06
  2.53130715419E-06  2.59538749989E-06  2.66109004725E-06  2.72845586253E-06
  2.79752705153E-06  2.86834678601E-06  2.94095933060E-06  3.01541007052E-06
  3.09174553988E-06  3.17001345085E-06  3.25026272343E-06  3.33254351601E-06
  3.41690725677E-06  3.50340667579E-06  3.59209583804E-06  3.68303017711E-06
  3.77626652994E-06  3.87186317228E-06  3.96987985514E-06  4.07037784214E-06
  4.17341994779E-06  4.27907057677E-06  4.38739576415E-06  4.49846321671E-06
  4.61234235522E-06  4.72910435784E-06  4.84882220463E-06  4.97157072314E-06
  5.09742663520E-06  5.22646860483E-06  5.35877728748E-06  5.49443538037E-06
  5.63352767424E-06  5.77614110629E-06  5.92236481456E-06  6.07229019364E-06
  6.22601095175E-06  6.38362316938E-06  6.54522535929E-06  6.71091852812E-06
  6.88080623949E-06  7.05499467875E-06  7.23359271934E-06  7.41671199085E-06
  7.60446694880E-06  7.79697494613E-06  7.99435630662E-06  8.19673440004E-06
  8.40423571928E-06  8.61698995943E-06  8.83513009881E-06  9.05879248211E-06
  9.28811690560E-06  9.52324670451E-06  9.76432884262E-06  1.00115140041E-05
  1.02649566878E-05  1.05248153035E-05  1.07912522714E-05  1.10644341232E-05
  1.13445316066E-05  1.16317197915E-05  1.19261781800E-05  1.22280908180E-05
  1.25376464108E-05  1.28550384408E-05  1.31804652883E-05  1.35141303556E-05
  1.38562421944E-05  1.42070146355E-05  1.45666669233E-05  1.49354238521E-05
  1.53135159070E-05  1.57011794079E-05  1.60986566569E-05  1.65061960905E-05
  1.69240524339E-05  1.73524868610E-05  1.77917671573E-05  1.82421678873E-05
  1.87039705660E-05  1.91774638351E-05  1.96629436435E-05  2.01607134317E-05
  2.06710843220E-05  2.11943753130E-05  2.17309134785E-05  2.22810341723E-05
  2.28450812378E-05  2.34234072227E-05  2.40163735997E-05  2.46243509919E-05
  2.52477194051E-05  2.58868684648E-05  2.65421976600E-05  2.72141165927E-05
  2.79030452342E-05  2.86094141873E-05  2.93336649556E-05  3.00762502194E-05
  3.08376341186E-05  3.16182925430E-05  3.24187134295E-05  3.32393970673E-05
  3.40808564102E-05  3.49436173978E-05  3.58282192838E-05  3.67352149731E-05
  3.76651713676E-05  3.86186697204E-05  3.95963059988E-05  4.05986912575E-05
  4.16264520199E-05  4.26802306697E-05  4.37606858532E-05  4.48684928898E-05
  4.60043441950E-05  4.71689497130E-05  4.83630373599E-05  4.95873534796E-05
  5.08426633095E-05  5.21297514589E-05  5.34494224000E-05  5.48025009700E-05
  5.61898328871E-05  5.76122852789E-05  5.90707472244E-05  6.05661303099E-05
  6.20993691984E-05  6.36714222141E-05  6.52832719415E-05  6.69359258389E-05
  6.86304168689E-05  7.03678041436E-05  7.21491735865E-05  7.39756386116E-05
  7.58483408189E-05  7.77684507083E-05  7.97371684110E-05  8.17557244396E-05
  8.38253804574E-05  8.59474300666E-05  8.81231996176E-05  9.03540490369E-05
  9.26413726781E-05  9.49866001930E-05  9.73911974251E-05  9.98566673259E-05
  1.02384550894E-04  1.04976428140E-04  1.07633919071E-04  1.10358684705E-04
  1.13152428109E-04  1.16016895464E-04  1.18953877156E-04  1.21965208893E-04
  1.25052772855E-04  1.28218498872E-04  1.31464365625E-04  1.34792401885E-04
  1.38204687785E-04  1.41703356113E-04  1.45290593652E-04  1.48968642541E-04
  1.52739801681E-04  1.56606428170E-04  1.60570938774E-04  1.64635811441E-04
  1.68803586851E-04  1.73076869997E-04  1.77458331821E-04  1.81950710879E-04
  1.86556815054E-04  1.91279523312E-04  1.96121787499E-04  2.01086634187E-04
  2.06177166567E-04  2.11396566388E-04  2.16748095944E-04  2.22235100117E-04
  2.27861008461E-04  2.33629337353E-04  2.39543692186E-04  2.45607769625E-04
  2.51825359914E-04  2.58200349252E-04  2.64736722212E-04  2.71438564243E-04
  2.78310064211E-04  2.85355517030E-04  2.92579326336E-04  2.99986007245E-04
  3.07580189174E-04  3.15366618734E-04  3.23350162697E-04  3.31535811037E-04
  3.39928680051E-04  3.48534015557E-04  3.57357196167E-04  3.66403736659E-04
  3.75679291413E-04  3.85189657953E-04  3.94940780569E-04  4.04938754029E-04
  4.15189827393E-04  4.25700407914E-04  4.36477065047E-04  4.47526534555E-04
  4.58855722715E-04  4.70471710639E-04  4.82381758697E-04  4.94593311057E-04
  5.07114000337E-04  5.19951652376E-04  5.33114291122E-04  5.46610143655E-04
  5.60447645322E-04  5.74635445011E-04  5.89182410559E-04  6.04097634293E-04
  6.19390438714E-04  6.35070382321E-04  6.51147265591E-04  6.67631137099E-04
  6.84532299800E-04  7.01861317473E-04  7.19629021316E-04  7.37846516724E-04
  7.56525190223E-04  7.75676716593E-04  7.95313066162E-04  8.15446512286E-04
  8.36089639026E-04  8.57255349007E-04  8.78956871488E-04  9.01207770625E-04
  9.24021953956E-04  9.47413681088E-04  9.71397572611E-04  9.95988619239E-04
  1.02120219118E-03  1.04705404772E-03  1.07356034714E-03  1.10073765672E-03
  1.12860296316E-03  1.15717368320E-03  1.18646767446E-03  1.21650324663E-03
  1.24729917294E-03  1.27887470183E-03  1.31124956905E-03  1.34444400992E-03
  1.37847877207E-03  1.41337512833E-03  1.44915489005E-03  1.48584042075E-03
  1.52345465008E-03  1.56202108816E-03  1.60156384027E-03  1.64210762191E-03
  1.68367777428E-03  1.72630028006E-03  1.77000177971E-03  1.81480958809E-03
  1.86075171154E-03  1.90785686538E-03  1.95615449188E-03  2.00567477860E-03
  2.05644867735E-03  2.10850792347E-03  2.16188505568E-03  2.21661343643E-03
  2.27272727273E-03  2.33026163756E-03  2.38925249176E-03  2.44973670656E-03
  2.51175208654E-03  2.57533739333E-03  2.64053236984E-03  2.70737776503E-03
  2.77591535945E-03  2.84618799135E-03  2.91823958338E-03  2.99211517015E-03
  3.06786092631E-03  3.14552419541E-03  3.22515351953E-03  3.30679866959E-03
  3.39051067646E-03  3.47634186287E-03  3.56434587611E-03  3.65457772156E-03
  3.74709379705E-03  3.84195192813E-03  3.93921140424E-03  4.03893301571E-03
  4.14117909180E-03  4.24601353962E-03  4.35350188412E-03  4.46371130902E-03
  4.57671069880E-03  4.69257068174E-03  4.81136367412E-03  4.93316392542E-03
  5.05804756476E-03  5.18609264848E-03  5.31737920892E-03  5.45198930447E-03
  5.59000707081E-03  5.73151877354E-03  5.87661286208E-03  6.02538002496E-03
  6.17791324650E-03  6.33430786492E-03  6.49466163196E-03  6.65907477394E-03
  6.82765005442E-03  7.00049283845E-03  7.17771115839E-03  7.35941578145E-03
  7.54572027895E-03  7.73674109725E-03  7.93259763060E-03  8.13341229569E-03
  8.33931060823E-03  8.55042126136E-03  8.76687620613E-03  8.98881073391E-03
  9.21636356101E-03  9.44967691535E-03  9.68889662538E-03  9.93417221120E-03
  1.01856569780E-02  1.04435081121E-02  1.07078867786E-02  1.09789582230E-02
  1.12568918736E-02  1.15418614481E-02  1.18340450618E-02  1.21336253388E-02
  1.24407895267E-02  1.27557296129E-02  1.30786424455E-02  1.34097298553E-02
  1.37491987828E-02  1.40972614071E-02  1.44541352786E-02  1.48200434553E-02
  1.51952146415E-02  1.55798833316E-02  1.59742899559E-02  1.63786810314E-02
  1.67933093158E-02  1.72184339651E-02  1.76543206962E-02  1.81012419524E-02
  1.85594770740E-02  1.90293124730E-02  1.95110418118E-02  2.00049661868E-02
  2.05113943169E-02  2.10306427362E-02  2.15630359917E-02  2.21089068467E-02
  2.26685964882E-02  2.32424547404E-02  2.38308402835E-02  2.44341208774E-02
  2.50526735924E-02  2.56868850438E-02  2.63371516346E-02  2.70038798025E-02
  2.76874862743E-02  2.83883983264E-02  2.91070540515E-02  2.98439026329E-02
  3.05994046250E-02  3.13740322411E-02  3.21682696486E-02  3.29826132718E-02
  3.38175721020E-02  3.46736680156E-02  3.55514361004E-02  3.64514249901E-02
  3.73741972070E-02  3.83203295138E-02  3.92904132740E-02  4.02850548215E-02
  4.13048758396E-02  4.23505137498E-02  4.34226221096E-02  4.45218710218E-02
  4.56489475527E-02  4.68045561618E-02  4.79894191421E-02  4.92042770716E-02
  5.04498892760E-02  5.17270343035E-02  5.30365104112E-02  5.43791360645E-02
  5.57557504480E-02  5.71672139905E-02  5.86144089027E-02  6.00982397286E-02
  6.16196339106E-02  6.31795423697E-02  6.47789400995E-02  6.64188267755E-02
  6.81002273804E-02  6.98241928443E-02  7.15918007017E-02  7.34041557650E-02