<PP_INFO>
Generated using Vanderbilt code, version   7  3  6                              
Author: kfg        Generation date:   22    9   15                              
Automatically converted from original format                                    
    1        The Pseudo was generated with a Scalar-Relativistic Calculation
  1.50000000000E+00    Local Potential cutoff radius
nl pn  l   occ               Rcut            Rcut US             E pseu
3S  3  0  2.00      0.00000000000      1.50000000000     -1.02290295500
3P  3  1  3.00      0.00000000000      1.50000000000     -0.40275287900
</PP_INFO>


<PP_HEADER>
   0                   Version Number
  P                    Element
   US                  Ultrasoft pseudopotential
    T                  Nonlinear Core Correction
SLA  PW   PSX  PSC     PBEsol  Exchange-Correlation functional
    5.00000000000      Z valence
  -15.05651865160      Total energy
    0.00000    0.00000 Suggested cutoff for wfc and rho
    2                  Max angular momentum component
  903                  Number of points in mesh
    2    6             Number of Wavefunctions, Number of Projectors
 Wavefunctions         nl  l   occ
                       3S  0  2.00
                       3P  1  3.00
</PP_HEADER>


<PP_MESH>
  <PP_R>
  0.00000000000E+00  1.02169263909E-06  2.06055618223E-06  3.11687920930E-06
  4.19095515016E-06  5.28308236614E-06  6.39356423293E-06  7.52270922487E-06
  8.67083100059E-06  9.83824849021E-06  1.10252859838E-05  1.22322732218E-05
  1.34595454860E-05  1.47074436934E-05  1.59763144903E-05  1.72665103491E-05
  1.85783896657E-05  1.99123168596E-05  2.12686624746E-05  2.26478032821E-05
  2.40501223857E-05  2.54760093274E-05  2.69258601962E-05  2.84000777377E-05
  2.98990714662E-05  3.14232577786E-05  3.29730600698E-05  3.45489088502E-05
  3.61512418659E-05  3.77805042197E-05  3.94371484949E-05  4.11216348811E-05
  4.28344313020E-05  4.45760135454E-05  4.63468653955E-05  4.81474787668E-05
  4.99783538413E-05  5.18399992072E-05  5.37329320002E-05  5.56576780471E-05
  5.76147720120E-05  5.96047575446E-05  6.16281874316E-05  6.36856237498E-05
  6.57776380225E-05  6.79048113782E-05  7.00677347121E-05  7.22670088502E-05
  7.45032447161E-05  7.67770635007E-05  7.90890968351E-05  8.14399869655E-05
  8.38303869322E-05  8.62609607505E-05  8.87323835954E-05  9.12453419892E-05
  9.38005339919E-05  9.63986693957E-05  9.90404699215E-05  1.01726669420E-04
  1.04458014074E-04  1.07235262609E-04  1.10059186501E-04  1.12930570190E-04
  1.15850211303E-04  1.18818920868E-04  1.21837523548E-04  1.24906857861E-04
  1.28027776421E-04  1.31201146169E-04  1.34427848618E-04  1.37708780094E-04
  1.41044851988E-04  1.44436991009E-04  1.47886139439E-04  1.51393255397E-04
  1.54959313105E-04  1.58585303156E-04  1.62272232794E-04  1.66021126190E-04
  1.69833024727E-04  1.73708987291E-04  1.77650090561E-04  1.81657429315E-04
  1.85732116729E-04  1.89875284685E-04  1.94088084090E-04  1.98371685195E-04
  2.02727277915E-04  2.07156072165E-04  2.11659298194E-04  2.16238206928E-04
  2.20894070315E-04  2.25628181680E-04  2.30441856085E-04  2.35336430692E-04
  2.40313265137E-04  2.45373741906E-04  2.50519266720E-04  2.55751268924E-04
  2.61071201885E-04  2.66480543397E-04  2.71980796090E-04  2.77573487847E-04
  2.83260172230E-04  2.89042428908E-04  2.94921864103E-04  3.00900111029E-04
  3.06978830347E-04  3.13159710631E-04  3.19444468830E-04  3.25834850753E-04
  3.32332631545E-04  3.38939616188E-04  3.45657639997E-04  3.52488569135E-04
  3.59434301124E-04  3.66496765380E-04  3.73677923744E-04  3.80979771027E-04
  3.88404335569E-04  3.95953679795E-04  4.03629900794E-04  4.11435130900E-04
  4.19371538281E-04  4.27441327547E-04  4.35646740358E-04  4.43990056047E-04
  4.52473592256E-04  4.61099705578E-04  4.69870792210E-04  4.78789288622E-04
  4.87857672231E-04  4.97078462091E-04  5.06454219592E-04  5.15987549171E-04
  5.25681099037E-04  5.35537561904E-04  5.45559675743E-04  5.55750224538E-04
  5.66112039063E-04  5.76647997666E-04  5.87361027070E-04  5.98254103186E-04
  6.09330251939E-04  6.20592550106E-04  6.32044126178E-04  6.43688161220E-04
  6.55527889762E-04  6.67566600694E-04  6.79807638179E-04  6.92254402585E-04
  7.04910351425E-04  7.17779000323E-04  7.30863923986E-04  7.44168757199E-04
  7.57697195834E-04  7.71452997879E-04  7.85439984478E-04  7.99662040995E-04
  8.14123118092E-04  8.28827232829E-04  8.43778469776E-04  8.58980982151E-04
  8.74438992972E-04  8.90156796230E-04  9.06138758082E-04  9.22389318065E-04
  9.38912990328E-04  9.55714364887E-04  9.72798108897E-04  9.90168967953E-04
  1.00783176741E-03  1.02579141370E-03  1.04405289575E-03  1.06262128629E-03
  1.08150174334E-03  1.10069951160E-03  1.12021992388E-03  1.14006840267E-03
  1.16025046155E-03  1.18077170677E-03  1.20163783883E-03  1.22285465399E-03
  1.24442804596E-03  1.26636400748E-03  1.28866863202E-03  1.31134811544E-03
  1.33440875776E-03  1.35785696485E-03  1.38169925026E-03  1.40594223700E-03
  1.43059265937E-03  1.45565736489E-03  1.48114331614E-03  1.50705759270E-03
  1.53340739315E-03  1.56020003706E-03  1.58744296699E-03  1.61514375060E-03
  1.64331008273E-03  1.67194978755E-03  1.70107082070E-03  1.73068127157E-03
  1.76078936545E-03  1.79140346590E-03  1.82253207705E-03  1.85418384591E-03
  1.88636756486E-03  1.91909217403E-03  1.95236676378E-03  1.98620057729E-03
  2.02060301305E-03  2.05558362750E-03  2.09115213772E-03  2.12731842407E-03
  2.16409253298E-03  2.20148467972E-03  2.23950525123E-03  2.27816480902E-03
  2.31747409211E-03  2.35744402001E-03  2.39808569571E-03  2.43941040885E-03
  2.48142963877E-03  2.52415505774E-03  2.56759853423E-03  2.61177213613E-03
  2.65668813419E-03  2.70235900534E-03  2.74879743625E-03  2.79601632677E-03
  2.84402879356E-03  2.89284817373E-03  2.94248802853E-03  2.99296214714E-03
  3.04428455046E-03  3.09646949504E-03  3.14953147704E-03  3.20348523625E-03
  3.25834576015E-03  3.31412828815E-03  3.37084831574E-03  3.42852159886E-03
  3.48716415822E-03  3.54679228382E-03  3.60742253939E-03  3.66907176707E-03
  3.73175709204E-03  3.79549592729E-03  3.86030597846E-03  3.92620524876E-03
  3.99321204398E-03  4.06134497753E-03  4.13062297567E-03  4.20106528274E-03
  4.27269146650E-03  4.34552142356E-03  4.41957538495E-03  4.49487392167E-03
  4.57143795048E-03  4.64928873966E-03  4.72844791492E-03  4.80893746543E-03
  4.89077974992E-03  4.97399750288E-03  5.05861384089E-03  5.14465226904E-03
  5.23213668743E-03  5.32109139787E-03  5.41154111056E-03  5.50351095100E-03
  5.59702646696E-03  5.69211363559E-03  5.78879887058E-03  5.88710902958E-03
  5.98707142159E-03  6.08871381459E-03  6.19206444322E-03  6.29715201667E-03
  6.40400572659E-03  6.51265525527E-03  6.62313078382E-03  6.73546300060E-03
  6.84968310973E-03  6.96582283975E-03  7.08391445245E-03  7.20399075181E-03
  7.32608509312E-03  7.45023139227E-03  7.57646413514E-03  7.70481838720E-03
  7.83532980322E-03  7.96803463721E-03  8.10296975250E-03  8.24017263190E-03
  8.37968138824E-03  8.52153477482E-03  8.66577219628E-03  8.81243371950E-03
  8.96156008474E-03  9.11319271694E-03  9.26737373725E-03  9.42414597473E-03
  9.58355297823E-03  9.74563902849E-03  9.91044915047E-03  1.00780291258E-02
  1.02484255056E-02  1.04216856232E-02  1.05978576076E-02  1.07769903966E-02
  1.09591337504E-02  1.11443382656E-02  1.13326553891E-02  1.15241374323E-02
  1.17188375861E-02  1.19168099349E-02  1.21181094725E-02  1.23227921166E-02
  1.25309147248E-02  1.27425351103E-02  1.29577120580E-02  1.31765053405E-02
  1.33989757353E-02  1.36251850410E-02  1.38551960950E-02  1.40890727907E-02
  1.43268800955E-02  1.45686840685E-02  1.48145518789E-02  1.50645518249E-02
  1.53187533526E-02  1.55772270752E-02  1.58400447926E-02  1.61072795113E-02
  1.63790054651E-02  1.66552981350E-02  1.69362342707E-02  1.72218919120E-02
  1.75123504100E-02  1.78076904495E-02  1.81079940712E-02  1.84133446949E-02
  1.87238271420E-02  1.90395276596E-02  1.93605339445E-02  1.96869351671E-02
  2.00188219964E-02  2.03562866255E-02  2.06994227966E-02  2.10483258276E-02
  2.14030926381E-02  2.17638217769E-02  2.21306134488E-02  2.25035695427E-02
  2.28827936600E-02  2.32683911430E-02  2.36604691048E-02  2.40591364583E-02
  2.44645039471E-02  2.48766841758E-02  2.52957916416E-02  2.57219427659E-02
  2.61552559269E-02  2.65958514920E-02  2.70438518517E-02  2.74993814534E-02
  2.79625668362E-02  2.84335366655E-02  2.89124217694E-02  2.93993551746E-02
  2.98944721434E-02  3.03979102116E-02  3.09098092264E-02  3.14303113850E-02
  3.19595612749E-02  3.24977059134E-02  3.30448947884E-02  3.36012799004E-02
  3.41670158045E-02  3.47422596530E-02  3.53271712398E-02  3.59219130439E-02
  3.65266502752E-02  3.71415509203E-02  3.77667857888E-02  3.84025285610E-02
  3.90489558363E-02  3.97062471820E-02  4.03745851831E-02  4.10541554936E-02
  4.17451468872E-02  4.24477513104E-02  4.31621639357E-02  4.38885832157E-02
  4.46272109380E-02  4.53782522819E-02  4.61419158747E-02  4.69184138502E-02
  4.77079619072E-02  4.85107793697E-02  4.93270892477E-02  5.01571182993E-02
  5.10010970933E-02  5.18592600737E-02  5.27318456247E-02  5.36190961368E-02
  5.45212580742E-02  5.54385820431E-02  5.63713228617E-02  5.73197396306E-02
  5.82840958052E-02  5.92646592682E-02  6.02617024047E-02  6.12755021776E-02
  6.23063402044E-02  6.33545028357E-02  6.44202812344E-02  6.55039714571E-02
  6.66058745356E-02  6.77262965614E-02  6.88655487699E-02  7.00239476274E-02
  7.12018149188E-02  7.23994778370E-02  7.36172690740E-02  7.48555269128E-02
  7.61145953220E-02  7.73948240508E-02  7.86965687267E-02  8.00201909536E-02
  8.13660584130E-02  8.27345449655E-02  8.41260307552E-02  8.55409023148E-02
  8.69795526733E-02  8.84423814650E-02  8.99297950407E-02  9.14422065804E-02
  9.29800362080E-02  9.45437111085E-02  9.61336656460E-02  9.77503414847E-02
  9.93941877117E-02  1.01065660962E-01  1.02765225543E-01  1.04493353568E-01
  1.06250525084E-01  1.08037228205E-01  1.09853959249E-01  1.11701222875E-01
  1.13579532224E-01  1.15489409060E-01  1.17431383918E-01  1.19405996246E-01
  1.21413794562E-01  1.23455336599E-01  1.25531189467E-01  1.27641929803E-01
  1.29788143939E-01  1.31970428059E-01  1.34189388367E-01  1.36445641255E-01
  1.38739813474E-01  1.41072542310E-01  1.43444475757E-01  1.45856272701E-01
  1.48308603102E-01  1.50802148177E-01  1.53337600595E-01  1.55915664664E-01
  1.58537056529E-01  1.61202504373E-01  1.63912748613E-01  1.66668542113E-01
  1.69470650389E-01  1.72319851823E-01  1.75216937878E-01  1.78162713318E-01
  1.81157996433E-01  1.84203619266E-01  1.87300427842E-01  1.90449282407E-01
  1.93651057661E-01  1.96906643008E-01  2.00216942799E-01  2.03582876581E-01
  2.07005379358E-01  2.10485401848E-01  2.14023910746E-01  2.17621888993E-01
  2.21280336051E-01  2.25000268180E-01  2.28782718716E-01  2.32628738366E-01
  2.36539395493E-01  2.40515776416E-01  2.44558985710E-01  2.48670146516E-01
  2.52850400848E-01  2.57100909915E-01  2.61422854443E-01  2.65817434998E-01
  2.70285872325E-01  2.74829407687E-01  2.79449303205E-01  2.84146842214E-01
  2.88923329615E-01  2.93780092241E-01  2.98718479225E-01  3.03739862372E-01
  3.08845636543E-01  3.14037220042E-01  3.19316055008E-01  3.24683607819E-01
  3.30141369495E-01  3.35690856118E-01  3.41333609246E-01  3.47071196348E-01
  3.52905211234E-01  3.58837274501E-01  3.64869033984E-01  3.71002165210E-01
  3.77238371865E-01  3.83579386269E-01  3.90026969857E-01  3.96582913665E-01
  4.03249038830E-01  4.10027197097E-01  4.16919271331E-01  4.23927176042E-01
  4.31052857915E-01  4.38298296352E-01  4.45665504021E-01  4.53156527416E-01
  4.60773447425E-01  4.68518379908E-01  4.76393476286E-01  4.84400924135E-01
  4.92542947798E-01  5.00821809000E-01  5.09239807480E-01  5.17799281623E-01
  5.26502609116E-01  5.35352207607E-01  5.44350535373E-01  5.53500092010E-01
  5.62803419117E-01  5.72263101014E-01  5.81881765450E-01  5.91662084339E-01
  6.01606774498E-01  6.11718598405E-01  6.22000364966E-01  6.32454930293E-01
  6.43085198498E-01  6.53894122504E-01  6.64884704857E-01  6.76059998568E-01
  6.87423107957E-01  6.98977189517E-01  7.10725452790E-01  7.22671161256E-01
  7.34817633245E-01  7.47168242856E-01  7.59726420892E-01  7.72495655817E-01
  7.85479494723E-01  7.98681544316E-01  8.12105471916E-01  8.25755006478E-01
  8.39633939628E-01  8.53746126713E-01  8.68095487877E-01  8.82686009146E-01
  8.97521743536E-01  9.12606812179E-01  9.27945405470E-01  9.43541784227E-01
  9.59400280879E-01  9.75525300665E-01  9.91921322860E-01  1.00859290202E+00
  1.02554466925E+00  1.04278133348E+00  1.06030768279E+00  1.07812858571E+00
  1.09624899261E+00  1.11467393706E+00  1.13340853721E+00  1.15245799724E+00
  1.17182760879E+00  1.19152275243E+00  1.21154889917E+00  1.23191161194E+00
  1.25261654719E+00  1.27366945642E+00  1.29507618780E+00  1.31684268778E+00
  1.33897500275E+00  1.36147928072E+00  1.38436177301E+00  1.40762883604E+00
  1.43128693301E+00  1.45534263578E+00  1.47980262663E+00  1.50467370017E+00
  1.52996276520E+00  1.55567684660E+00  1.58182308735E+00  1.60840875046E+00
  1.63544122101E+00  1.66292800819E+00  1.69087674740E+00  1.71929520235E+00
  1.74819126724E+00  1.77757296895E+00  1.80744846925E+00  1.83782606707E+00
  1.86871420084E+00  1.90012145079E+00  1.93205654136E+00  1.96452834361E+00
  1.99754587770E+00  2.03111831537E+00  2.06525498252E+00  2.09996536179E+00
  2.13525909515E+00  2.17114598665E+00  2.20763600512E+00  2.24473928688E+00
  2.28246613866E+00  2.32082704038E+00  2.35983264808E+00  2.39949379691E+00
  2.43982150411E+00  2.48082697209E+00  2.52252159151E+00  2.56491694447E+00
  2.60802480775E+00  2.65185715601E+00  2.69642616521E+00  2.74174421589E+00
  2.78782389671E+00  2.83467800787E+00  2.88231956470E+00  2.93076180128E+00
  2.98001817409E+00  3.03010236577E+00  3.08102828893E+00  3.13281008997E+00
  3.18546215308E+00  3.23899910415E+00  3.29343581490E+00  3.34878740701E+00
  3.40506925626E+00  3.46229699686E+00  3.52048652577E+00  3.57965400714E+00
  3.63981587675E+00  3.70098884661E+00  3.76318990961E+00  3.82643634423E+00
  3.89074571933E+00  3.95613589903E+00  4.02262504769E+00  4.09023163496E+00
  4.15897444086E+00  4.22887256108E+00  4.29994541219E+00  4.37221273713E+00
  4.44569461060E+00  4.52041144471E+00  4.59638399463E+00  4.67363336431E+00
  4.75218101243E+00  4.83204875828E+00  4.91325878784E+00  4.99583366000E+00
  5.07979631273E+00  5.16517006955E+00  5.25197864594E+00  5.34024615593E+00
  5.42999711887E+00  5.52125646614E+00  5.61404954815E+00  5.70840214135E+00
  5.80434045541E+00  5.90189114047E+00  6.00108129457E+00  6.10193847117E+00
  6.20449068681E+00  6.30876642886E+00  6.41479466349E+00  6.52260484366E+00
  6.63222691733E+00  6.74369133579E+00  6.85702906210E+00  6.97227157968E+00
  7.08945090108E+00  7.20859957687E+00  7.32975070468E+00  7.45293793836E+00
  7.57819549739E+00  7.70555817635E+00  7.83506135456E+00  7.96674100598E+00
  8.10063370912E+00  8.23677665726E+00  8.37520766878E+00  8.51596519760E+00
  8.65908834397E+00  8.80461686521E+00  8.95259118686E+00  9.10305241386E+00
  9.25604234194E+00  9.41160346930E+00  9.56977900836E+00  9.73061289779E+00
  9.89414981471E+00  1.00604351871E+01  1.02295152064E+01  1.04014368403E+01
  1.05762478460E+01  1.07539967833E+01  1.09347330279E+01  1.11185067855E+01
  1.13053691056E+01  1.14953718957E+01  1.16885679353E+01  1.18850108915E+01
  1.20847553329E+01  1.22878567453E+01  1.24943715472E+01  1.27043571051E+01
  1.29178717497E+01  1.31349747919E+01  1.33557265395E+01  1.35801883140E+01
  1.38084224672E+01  1.40404923990E+01  1.42764625747E+01  1.45163985432E+01
  1.47603669548E+01  1.50084355802E+01  1.52606733288E+01  1.55171502684E+01
  1.57779376441E+01  1.60431078987E+01  1.63127346922E+01  1.65868929226E+01
  1.68656587468E+01  1.71491096016E+01  1.74373242251E+01  1.77303826787E+01
  1.80283663696E+01  1.83313580728E+01  1.86394419547E+01  1.89527035961E+01
  1.92712300162E+01  1.95951096965E+01  1.99244326057E+01  2.02592902245E+01
  2.05997755711E+01  2.09459832269E+01  2.12980093630E+01  2.16559517666E+01
  2.20199098685E+01  2.23899847705E+01  2.27662792736E+01  2.31488979065E+01
  2.35379469544E+01  2.39335344893E+01  2.43357703989E+01  2.47447664181E+01
  2.51606361596E+01  2.55834951453E+01  2.60134608388E+01  2.64506526779E+01
  2.68951921074E+01  2.73472026134E+01  2.78068097574E+01  2.82741412109E+01
  2.87493267911E+01  2.92324984973E+01  2.97237905467E+01  3.02233394127E+01
  3.07312838619E+01  3.12477649934E+01  3.17729262774E+01  3.23069135954E+01
  3.28498752808E+01  3.34019621596E+01  3.39633275929E+01  3.45341275191E+01
  3.51145204975E+01  3.57046677520E+01  3.63047332163E+01  3.69148835790E+01
  3.75352883303E+01  3.81661198088E+01  3.88075532495E+01  3.94597668326E+01
  4.01229417327E+01  4.07972621692E+01  4.14829154578E+01  4.21800920620E+01
  4.28889856466E+01  4.36097931310E+01  4.43427147442E+01  4.50879540801E+01
  4.58457181545E+01  4.66162174623E+01  4.73996660360E+01  4.81962815053E+01
  4.90062851573E+01  4.98299019984E+01  5.06673608162E+01  5.15188942435E+01
  5.23847388230E+01  5.32651350726E+01  5.41603275524E+01  5.50705649327E+01
  5.59961000632E+01  5.69371900429E+01  5.78940962918E+01  5.88670846232E+01
  5.98564253179E+01  6.08623931992E+01  6.18852677091E+01  6.29253329860E+01
  6.39828779435E+01  6.50581963510E+01  6.61515869149E+01  6.72633533618E+01
  6.83938045230E+01  6.95432544199E+01  7.07120223515E+01  7.19004329831E+01
  7.31088164364E+01  7.43375083813E+01  7.55868501289E+01  7.68571887268E+01
  7.81488770548E+01  7.94622739235E+01  8.07977441740E+01  8.21556587788E+01
  8.35363949450E+01  8.49403362194E+01  8.63678725947E+01  8.78194006180E+01
  8.92953235008E+01  9.07960512312E+01  9.23220006877E+01  9.38735957548E+01
  9.54512674413E+01  9.70554539994E+01  9.86866010468E+01  1.00345161690E+02
  1.02031596652E+02  1.03746374397E+02  1.05489971263E+02  1.07262871594E+02
  1.09065567874E+02  1.10898560863E+02  1.12762359738E+02  1.14657482233E+02
  1.16584454782E+02  1.18543812669E+02  1.20536100172E+02  1.22561870716E+02
  1.24621687030E+02  1.26716121297E+02  1.28845755319E+02  1.31011180673E+02
  1.33212998881E+02  1.35451821574E+02  1.37728270661E+02  1.40042978503E+02
  1.42396588089E+02  1.44789753216E+02  1.47223138667E+02  1.49697420398E+02
  1.52213285725E+02  1.54771433515E+02  1.57372574383E+02  1.60017430883E+02
  1.62706737716E+02  1.65441241928E+02  1.68221703121E+02  1.71048893664E+02
  1.73923598904E+02  1.76846617391E+02  1.79818761092E+02  1.82840855623E+02
  1.85913740472E+02  1.89038269240E+02  1.92215309870E+02  1.95445744894E+02
  1.98730471677E+02  2.02070402664E+02  2.05466465634E+02
  </PP_R>
  <PP_RAB>
  1.01320218395E-06  1.03023039460E-06  1.04754478699E-06  1.06515017077E-06
  1.08305143645E-06  1.10125355672E-06  1.11976158783E-06  1.13858067103E-06
  1.15771603396E-06  1.17717299212E-06  1.19695695035E-06  1.21707340431E-06
  1.23752794205E-06  1.25832624551E-06  1.27947409212E-06  1.30097735643E-06
  1.32284201171E-06  1.34507413161E-06  1.36767989186E-06  1.39066557198E-06
  1.41403755704E-06  1.43780233941E-06  1.46196652055E-06  1.48653681291E-06
  1.51152004172E-06  1.53692314693E-06  1.56275318511E-06  1.58901733145E-06
  1.61572288172E-06  1.64287725428E-06  1.67048799220E-06  1.69856276530E-06
  1.72710937232E-06  1.75613574304E-06  1.78564994054E-06  1.81566016340E-06
  1.84617474797E-06  1.87720217074E-06  1.90875105062E-06  1.94083015140E-06
  1.97344838415E-06  2.00661480969E-06  2.04033864114E-06  2.07462924645E-06
  2.10949615099E-06  2.14494904025E-06  2.18099776249E-06  2.21765233145E-06
  2.25492292922E-06  2.29281990896E-06  2.33135379787E-06  2.37053530004E-06
  2.41037529949E-06  2.45088486312E-06  2.49207524387E-06  2.53395788377E-06
  2.57654441715E-06  2.61984667388E-06  2.66387668264E-06  2.70864667428E-06
  2.75416908518E-06  2.80045656077E-06  2.84752195896E-06  2.89537835379E-06
  2.94403903899E-06  2.99351753175E-06  3.04382757641E-06  3.09498314830E-06
  3.14699845763E-06  3.19988795343E-06  3.25366632758E-06  3.30834851884E-06
  3.36394971708E-06  3.42048536743E-06  3.47797117460E-06  3.53642310723E-06
  3.59585740236E-06  3.65629056988E-06  3.71773939719E-06  3.78022095379E-06
  3.84375259607E-06  3.90835197212E-06  3.97403702663E-06  4.04082600587E-06
  4.10873746276E-06  4.17779026203E-06  4.24800358546E-06  4.31939693720E-06
  4.39199014919E-06  4.46580338669E-06  4.54085715385E-06  4.61717229941E-06
  4.69477002253E-06  4.77367187861E-06  4.85389978536E-06  4.93547602882E-06
  5.01842326957E-06  5.10276454906E-06  5.18852329595E-06  5.27572333268E-06
  5.36438888203E-06  5.45454457391E-06  5.54621545212E-06  5.63942698140E-06
  5.73420505444E-06  5.83057599909E-06  5.92856658567E-06  6.02820403443E-06
  6.12951602307E-06  6.23253069446E-06  6.33727666445E-06  6.44378302982E-06
  6.55207937636E-06  6.66219578708E-06  6.77416285057E-06  6.88801166953E-06
  7.00377386935E-06  7.12148160695E-06  7.24116757968E-06  7.36286503440E-06
  7.48660777676E-06  7.61243018053E-06  7.74036719719E-06  7.87045436561E-06
  8.00272782197E-06  8.13722430974E-06  8.27398118992E-06  8.41303645140E-06
  8.55442872156E-06  8.69819727692E-06  8.84438205412E-06  8.99302366098E-06
  9.14416338780E-06  9.29784321880E-06  9.45410584382E-06  9.61299467013E-06
  9.77455383456E-06  9.93882821568E-06  1.01058634463E-05  1.02757059262E-05
  1.04484028350E-05  1.06240021450E-05  1.08025526351E-05  1.09841039037E-05
  1.11687063829E-05  1.13564113524E-05  1.15472709536E-05  1.17413382043E-05
  1.19386670133E-05  1.21393121955E-05  1.23433294869E-05  1.25507755604E-05
  1.27617080410E-05  1.29761855227E-05  1.31942675837E-05  1.34160148039E-05
  1.36414887812E-05  1.38707521486E-05  1.41038685919E-05  1.43409028672E-05
  1.45819208188E-05  1.48269893978E-05  1.50761766802E-05  1.53295518865E-05
  1.55871854002E-05  1.58491487878E-05  1.61155148186E-05  1.63863574850E-05
  1.66617520228E-05  1.69417749321E-05  1.72265039989E-05  1.75160183165E-05
  1.78103983074E-05  1.81097257456E-05  1.84140837797E-05  1.87235569555E-05
  1.90382312397E-05  1.93581940439E-05  1.96835342487E-05  2.00143422284E-05
  2.03507098764E-05  2.06927306301E-05  2.10404994977E-05  2.13941130838E-05
  2.17536696166E-05  2.21192689753E-05  2.24910127176E-05  2.28690041080E-05
  2.32533481467E-05  2.36441515982E-05  2.40415230217E-05  2.44455728005E-05
  2.48564131735E-05  2.52741582655E-05  2.56989241196E-05  2.61308287289E-05
  2.65699920698E-05  2.70165361349E-05  2.74705849670E-05  2.79322646939E-05
  2.84017035628E-05  2.88790319764E-05  2.93643825290E-05  2.98578900434E-05
  3.03596916081E-05  3.08699266157E-05  3.13887368014E-05  3.19162662825E-05
  3.24526615983E-05  3.29980717511E-05  3.35526482470E-05  3.41165451388E-05
  3.46899190680E-05  3.52729293090E-05  3.58657378126E-05  3.64685092518E-05
  3.70814110670E-05  3.77046135126E-05  3.83382897044E-05  3.89826156676E-05
  3.96377703858E-05  4.03039358507E-05  4.09812971125E-05  4.16700423314E-05
  4.23703628301E-05  4.30824531464E-05  4.38065110878E-05  4.45427377862E-05
  4.52913377537E-05  4.60525189397E-05  4.68264927881E-05  4.76134742967E-05
  4.84136820766E-05  4.92273384128E-05  5.00546693262E-05  5.08959046362E-05
  5.17512780249E-05  5.26210271013E-05  5.35053934680E-05  5.44046227881E-05
  5.53189648532E-05  5.62486736531E-05  5.71940074463E-05  5.81552288316E-05
  5.91326048210E-05  6.01264069142E-05  6.11369111738E-05  6.21643983018E-05
  6.32091537179E-05  6.42714676387E-05  6.53516351583E-05  6.64499563300E-05
  6.75667362502E-05  6.87022851428E-05  6.98569184452E-05  7.10309568963E-05
  7.22247266256E-05  7.34385592433E-05  7.46727919331E-05  7.59277675451E-05
  7.72038346920E-05  7.85013478449E-05  7.98206674326E-05  8.11621599411E-05
  8.25261980159E-05  8.39131605653E-05  8.53234328655E-05  8.67574066679E-05
  8.82154803079E-05  8.96980588151E-05  9.12055540266E-05  9.27383847006E-05
  9.42969766334E-05  9.58817627771E-05  9.74931833603E-05  9.91316860103E-05
  1.00797725877E-04  1.02491765760E-04  1.04214276238E-04  1.05965735795E-04
  1.07746630960E-04  1.09557456438E-04  1.11398715248E-04  1.13270918861E-04
  1.15174587346E-04  1.17110249513E-04  1.19078443058E-04  1.21079714714E-04
  1.23114620403E-04  1.25183725388E-04  1.27287604436E-04  1.29426841971E-04
  1.31602032238E-04  1.33813779471E-04  1.36062698059E-04  1.38349412716E-04
  1.40674558655E-04  1.43038781764E-04  1.45442738789E-04  1.47887097509E-04
  1.50372536930E-04  1.52899747466E-04  1.55469431138E-04  1.58082301763E-04
  1.60739085154E-04  1.63440519326E-04  1.66187354692E-04  1.68980354281E-04
  1.71820293944E-04  1.74707962571E-04  1.77644162311E-04  1.80629708794E-04
  1.83665431357E-04  1.86752173277E-04  1.89890792002E-04  1.93082159389E-04
  1.96327161952E-04  1.99626701099E-04  2.02981693392E-04  2.06393070793E-04
  2.09861780931E-04  2.13388787356E-04  2.16975069817E-04  2.20621624526E-04
  2.24329464439E-04  2.28099619533E-04  2.31933137100E-04  2.35831082030E-04
  2.39794537110E-04  2.43824603325E-04  2.47922400165E-04  2.52089065932E-04
  2.56325758061E-04  2.60633653438E-04  2.65013948727E-04  2.69467860706E-04
  2.73996626602E-04  2.78601504433E-04  2.83283773363E-04  2.88044734051E-04
  2.92885709017E-04  2.97808043009E-04  3.02813103371E-04  3.07902280432E-04
  3.13076987883E-04  3.18338663178E-04  3.23688767926E-04  3.29128788302E-04
  3.34660235458E-04  3.40284645942E-04  3.46003582127E-04  3.51818632643E-04
  3.57731412820E-04  3.63743565133E-04  3.69856759665E-04  3.76072694563E-04
  3.82393096517E-04  3.88819721235E-04  3.95354353930E-04  4.01998809822E-04
  4.08754934635E-04  4.15624605113E-04  4.22609729544E-04  4.29712248283E-04
  4.36934134298E-04  4.44277393716E-04  4.51744066378E-04  4.59336226408E-04
  4.67055982787E-04  4.74905479943E-04  4.82886898341E-04  4.91002455094E-04
  4.99254404575E-04  5.07645039045E-04  5.16176689290E-04  5.24851725268E-04
  5.33672556766E-04  5.42641634074E-04  5.51761448657E-04  5.61034533858E-04
  5.70463465592E-04  5.80050863068E-04  5.89799389513E-04  5.99711752915E-04
  6.09790706771E-04  6.20039050856E-04  6.30459631997E-04  6.41055344867E-04
  6.51829132789E-04  6.62783988550E-04  6.73922955236E-04  6.85249127077E-04
  6.96765650303E-04  7.08475724024E-04  7.20382601113E-04  7.32489589112E-04
  7.44800051151E-04  7.57317406882E-04  7.70045133429E-04  7.82986766354E-04
  7.96145900638E-04  8.09526191679E-04  8.23131356313E-04  8.36965173839E-04
  8.51031487072E-04  8.65334203413E-04  8.79877295930E-04  8.94664804465E-04
  9.09700836753E-04  9.24989569568E-04  9.40535249878E-04  9.56342196028E-04
  9.72414798937E-04  9.88757523320E-04  1.00537490893E-03  1.02227157181E-03
  1.03945220559E-03  1.05692158278E-03  1.07468455609E-03  1.09274605980E-03
  1.11111111111E-03  1.12978481154E-03  1.14877234835E-03  1.16807899597E-03
  1.18771011750E-03  1.20767116613E-03  1.22796768675E-03  1.24860531740E-03
  1.26958979088E-03  1.29092693636E-03  1.31262268096E-03  1.33468305141E-03
  1.35711417573E-03  1.37992228494E-03  1.40311371477E-03  1.42669490743E-03
  1.45067241341E-03  1.47505289327E-03  1.49984311953E-03  1.52504997852E-03
  1.55068047232E-03  1.57674172066E-03  1.60324096295E-03  1.63018556026E-03
  1.65758299738E-03  1.68544088488E-03  1.71376696123E-03  1.74256909499E-03
  1.77185528692E-03  1.80163367227E-03  1.83191252300E-03  1.86270025010E-03
  1.89400540591E-03  1.92583668652E-03  1.95820293414E-03  1.99111313962E-03
  2.02457644488E-03  2.05860214550E-03  2.09319969329E-03  2.12837869890E-03
  2.16414893451E-03  2.20052033650E-03  2.23750300830E-03  2.27510722310E-03
  2.31334342675E-03  2.35222224068E-03  2.39175446480E-03  2.43195108054E-03
  2.47282325388E-03  2.51438233847E-03  2.55663987877E-03  2.59960761325E-03
  2.64329747767E-03  2.68772160839E-03  2.73289234573E-03  2.77882223740E-03
  2.82552404201E-03  2.87301073257E-03  2.92129550015E-03  2.97039175748E-03
  3.02031314273E-03  3.07107352328E-03  3.12268699955E-03  3.17516790896E-03
  3.22853082987E-03  3.28279058566E-03  3.33796224883E-03  3.39406114520E-03
  3.45110285816E-03  3.50910323299E-03  3.56807838128E-03  3.62804468540E-03
  3.68901880304E-03  3.75101767185E-03  3.81405851412E-03  3.87815884162E-03
  3.94333646041E-03  4.00960947578E-03  4.07699629735E-03  4.14551564411E-03
  4.21518654965E-03  4.28602836744E-03  4.35806077623E-03  4.43130378548E-03
  4.50577774094E-03  4.58150333030E-03  4.65850158893E-03  4.73679390574E-03
  4.81640202909E-03  4.89734807287E-03  4.97965452260E-03  5.06334424171E-03
  5.14844047790E-03  5.23496686955E-03  5.32294745232E-03  5.41240666583E-03
  5.50336936044E-03  5.59586080415E-03  5.68990668962E-03  5.78553314131E-03
  5.88276672274E-03  5.98163444387E-03  6.08216376859E-03  6.18438262234E-03
  6.28831939993E-03  6.39400297334E-03  6.50146269980E-03  6.61072842993E-03
  6.72183051601E-03  6.83479982047E-03  6.94966772437E-03  7.06646613622E-03
  7.18522750077E-03  7.30598480805E-03  7.42877160253E-03  7.55362199245E-03
  7.68057065927E-03  7.80965286732E-03  7.94090447361E-03  8.07436193776E-03
  8.21006233215E-03  8.34804335219E-03  8.48834332685E-03  8.63100122923E-03
  8.77605668745E-03  8.92354999563E-03  9.07352212508E-03  9.22601473568E-03
  9.38107018747E-03  9.53873155242E-03  9.69904262636E-03  9.86204794116E-03
  1.00277927771E-02  1.01963231756E-02  1.03676859516E-02  1.05419287071E-02
  1.07190998438E-02  1.08992485772E-02  1.10824249498E-02  1.12686798450E-02
  1.14580650015E-02  1.16506330275E-02  1.18464374153E-02  1.20455325564E-02
  1.22479737563E-02  1.24538172498E-02  1.26631202170E-02  1.28759407991E-02
  1.30923381142E-02  1.33123722741E-02  1.35361044008E-02  1.37635966435E-02
  1.39949121960E-02  1.42301153141E-02  1.44692713335E-02  1.47124466880E-02
  1.49597089278E-02  1.52111267385E-02  1.54667699600E-02  1.57267096060E-02
  1.59910178835E-02  1.62597682133E-02  1.65330352499E-02  1.68108949026E-02