<PP_INFO>
Generated using Vanderbilt code, version   7  3  6                              
Author: kfg        Generation date:   22    9   15                              
Automatically converted from original format                                    
    1        The Pseudo was generated with a Scalar-Relativistic Calculation
  2.23000000000E+00    Local Potential cutoff radius
nl pn  l   occ               Rcut            Rcut US             E pseu
4P  4  1  6.00      0.00000000000      1.53000000000     -4.14671644400
5S  5  0  0.00      0.00000000000      2.50000000000     -0.50906092000
4D  4  2  9.50      0.00000000000      1.63000000000     -0.66255030500
5P  5  1  0.00      0.00000000000      1.53000000000     -0.21036727400
</PP_INFO>


<PP_HEADER>
   0                   Version Number
  Pd                   Element
   US                  Ultrasoft pseudopotential
    T                  Nonlinear Core Correction
SLA  PW   PSX  PSC     PBEsol  Exchange-Correlation functional
   16.00000000000      Z valence
 -198.07557947600      Total energy
    0.00000    0.00000 Suggested cutoff for wfc and rho
    2                  Max angular momentum component
  887                  Number of points in mesh
    4    6             Number of Wavefunctions, Number of Projectors
 Wavefunctions         nl  l   occ
                       4P  1  6.00
                       5S  0  0.00
                       4D  2  9.50
                       5P  1  0.00
</PP_HEADER>


<PP_MESH>
  <PP_R>
  0.00000000000E+00  1.24392416006E-09  2.51933841015E-09  3.82703992570E-09
  5.16784606273E-09  6.54259486872E-09  7.95214560642E-09  9.39737929093E-09
  1.08791992404E-08  1.23985316404E-08  1.39563261232E-08  1.55535563612E-08
  1.71912206751E-08  1.88703426585E-08  2.05919718173E-08  2.23571842258E-08
  2.41670831991E-08  2.60227999831E-08  2.79254944611E-08  2.98763558791E-08
  3.18766035891E-08  3.39274878109E-08  3.60302904140E-08  3.81863257184E-08
  4.03969413164E-08  4.26635189147E-08  4.49874751981E-08  4.73702627149E-08
  4.98133707848E-08  5.23183264300E-08  5.48866953293E-08  5.75200827968E-08
  6.02201347854E-08  6.29885389156E-08  6.58270255300E-08  6.87373687751E-08
  7.17213877102E-08  7.47809474443E-08  7.79179603019E-08  8.11343870180E-08
  8.44322379641E-08  8.78135744043E-08  9.12805097841E-08  9.48352110509E-08
  9.84799000087E-08  1.02216854707E-07  1.06048410863E-07  1.09976963326E-07
  1.14004967567E-07  1.18134941222E-07  1.22369465657E-07  1.26711187589E-07
  1.31162820734E-07  1.35727147510E-07  1.40407020767E-07  1.45205365580E-07
  1.50125181071E-07  1.55169542284E-07  1.60341602108E-07  1.65644593251E-07
  1.71081830253E-07  1.76656711566E-07  1.82372721671E-07  1.88233433260E-07
  1.94242509470E-07  2.00403706168E-07  2.06720874303E-07  2.13197962311E-07
  2.19839018583E-07  2.26648193994E-07  2.33629744502E-07  2.40788033802E-07
  2.48127536059E-07  2.55652838700E-07  2.63368645284E-07  2.71279778441E-07
  2.79391182889E-07  2.87707928517E-07  2.96235213563E-07  3.04978367858E-07
  3.13942856158E-07  3.23134281559E-07  3.32558389003E-07  3.42221068862E-07
  3.52128360626E-07  3.62286456675E-07  3.72701706151E-07  3.83380618922E-07
  3.94329869656E-07  4.05556301993E-07  4.17066932818E-07  4.28868956649E-07
  4.40969750135E-07  4.53376876668E-07  4.66098091104E-07  4.79141344616E-07
  4.92514789664E-07  5.06226785084E-07  5.20285901321E-07  5.34700925780E-07
  5.49480868321E-07  5.64634966888E-07  5.80172693288E-07  5.96103759103E-07
  6.12438121770E-07  6.29185990796E-07  6.46357834146E-07  6.63964384779E-07
  6.82016647364E-07  7.00525905152E-07  7.19503727031E-07  7.38961974759E-07
  7.58912810373E-07  7.79368703795E-07  8.00342440625E-07  8.21847130130E-07
  8.43896213442E-07  8.66503471955E-07  8.89683035943E-07  9.13449393386E-07
  9.37817399033E-07  9.62802283679E-07  9.88419663692E-07  1.01468555077E-06
  1.04161636194E-06  1.06922892984E-06  1.09754051323E-06  1.12656880776E-06
  1.15633195707E-06  1.18684856409E-06  1.21813770269E-06  1.25021892961E-06
  1.28311229666E-06  1.31683836325E-06  1.35141820929E-06  1.38687344830E-06
  1.42322624095E-06  1.46049930894E-06  1.49871594913E-06  1.53790004817E-06
  1.57807609741E-06  1.61926920817E-06  1.66150512750E-06  1.70481025421E-06
  1.74921165543E-06  1.79473708347E-06  1.84141499320E-06  1.88927455985E-06
  1.93834569720E-06  1.98865907630E-06  2.04024614466E-06  2.09313914587E-06
  2.14737113979E-06  2.20297602316E-06  2.25998855086E-06  2.31844435757E-06
  2.37837998007E-06  2.43983288008E-06  2.50284146766E-06  2.56744512522E-06
  2.63368423217E-06  2.70160019009E-06  2.77123544867E-06  2.84263353221E-06
  2.91583906685E-06  2.99089780842E-06  3.06785667107E-06  3.14676375661E-06
  3.22766838453E-06  3.31062112286E-06  3.39567381976E-06  3.48287963592E-06
  3.57229307784E-06  3.66397003181E-06  3.75796779893E-06  3.85434513084E-06
  3.95316226653E-06  4.05448096992E-06  4.15836456850E-06  4.26487799290E-06
  4.37408781747E-06  4.48606230191E-06  4.60087143393E-06  4.71858697296E-06
  4.83928249504E-06  4.96303343881E-06  5.08991715264E-06  5.22001294298E-06
  5.35340212393E-06  5.49016806808E-06  5.63039625858E-06  5.77417434263E-06
  5.92159218620E-06  6.07274193025E-06  6.22771804829E-06  6.38661740543E-06
  6.54953931895E-06  6.71658562035E-06  6.88786071900E-06  7.06347166742E-06
  7.24352822816E-06  7.42814294244E-06  7.61743120046E-06  7.81151131355E-06
  8.01050458809E-06  8.21453540136E-06  8.42373127926E-06  8.63822297602E-06
  8.85814455593E-06  9.08363347715E-06  9.31483067758E-06  9.55188066301E-06
  9.79493159739E-06  1.00441353955E-05  1.02996478177E-05  1.05616285677E-05
  1.08302413920E-05  1.11056541823E-05  1.13880390806E-05  1.16775725867E-05
  1.19744356683E-05  1.22788138746E-05  1.25908974519E-05  1.29108814626E-05
  1.32389659070E-05  1.35753558487E-05  1.39202615424E-05  1.42738985652E-05
  1.46364879519E-05  1.50082563326E-05  1.53894360747E-05  1.57802654279E-05
  1.61809886733E-05  1.65918562759E-05  1.70131250414E-05  1.74450582765E-05
  1.78879259535E-05  1.83420048791E-05  1.88075788674E-05  1.92849389174E-05
  1.97743833945E-05  2.02762182176E-05  2.07907570497E-05  2.13183214944E-05
  2.18592412966E-05  2.24138545487E-05  2.29825079022E-05  2.35655567838E-05
  2.41633656182E-05  2.47763080553E-05  2.54047672040E-05  2.60491358718E-05
  2.67098168101E-05  2.73872229660E-05  2.80817777404E-05  2.87939152526E-05
  2.95240806118E-05  3.02727301950E-05  3.10403319326E-05  3.18273656008E-05
  3.26343231211E-05  3.34617088683E-05  3.43100399854E-05  3.51798467070E-05
  3.60716726906E-05  3.69860753564E-05  3.79236262360E-05  3.88849113290E-05
  3.98705314700E-05  4.08811027037E-05  4.19172566700E-05  4.29796409988E-05
  4.40689197150E-05  4.51857736531E-05  4.63309008833E-05  4.75050171473E-05
  4.87088563061E-05  4.99431707982E-05  5.12087321105E-05  5.25063312599E-05
  5.38367792882E-05  5.52009077687E-05  5.65995693261E-05  5.80336381694E-05
  5.95040106383E-05  6.10116057634E-05  6.25573658409E-05  6.41422570210E-05
  6.57672699124E-05  6.74334202009E-05  6.91417492848E-05  7.08933249254E-05
  7.26892419144E-05  7.45306227585E-05  7.64186183805E-05  7.83544088393E-05
  8.03392040669E-05  8.23742446248E-05  8.44608024798E-05  8.66001817983E-05
  8.87937197621E-05  9.10427874039E-05  9.33487904640E-05  9.57131702696E-05
  9.81374046349E-05  1.00623008785E-04  1.03171536304E-04  1.05784580105E-04
  1.08463773424E-04  1.11210790845E-04  1.14027349343E-04  1.16915209359E-04
  1.19876175899E-04  1.22912099664E-04  1.26024878205E-04  1.29216457110E-04
  1.32488831220E-04  1.35844045874E-04  1.39284198192E-04  1.42811438381E-04
  1.46427971080E-04  1.50136056740E-04  1.53938013036E-04  1.57836216313E-04
  1.61833103076E-04  1.65931171510E-04  1.70132983040E-04  1.74441163935E-04
  1.78858406948E-04  1.83387473001E-04  1.88031192907E-04  1.92792469142E-04
  1.97674277658E-04  2.02679669746E-04  2.07811773938E-04  2.13073797966E-04
  2.18469030766E-04  2.24000844535E-04  2.29672696836E-04  2.35488132762E-04
  2.41450787149E-04  2.47564386850E-04  2.53832753065E-04  2.60259803726E-04
  2.66849555949E-04  2.73606128544E-04  2.80533744589E-04  2.87636734068E-04
  2.94919536582E-04  3.02386704120E-04  3.10042903904E-04  3.17892921308E-04
  3.25941662849E-04  3.34194159252E-04  3.42655568597E-04  3.51331179538E-04
  3.60226414616E-04  3.69346833643E-04  3.78698137176E-04  3.88286170085E-04
  3.98116925203E-04  4.08196547071E-04  4.18531335782E-04  4.29127750915E-04
  4.39992415574E-04  4.51132120528E-04  4.62553828456E-04  4.74264678296E-04
  4.86271989712E-04  4.98583267664E-04  5.11206207100E-04  5.24148697770E-04
  5.37418829151E-04  5.51024895507E-04  5.64975401073E-04  5.79279065368E-04
  5.93944828650E-04  6.08981857496E-04  6.24399550540E-04  6.40207544341E-04
  6.56415719411E-04  6.73034206386E-04  6.90073392362E-04  7.07543927385E-04
  7.25456731107E-04  7.43822999614E-04  7.62654212423E-04  7.81962139653E-04
  8.01758849388E-04  8.22056715216E-04  8.42868423963E-04  8.64206983626E-04
  8.86085731499E-04  9.08518342511E-04  9.31518837775E-04  9.55101593348E-04
  9.79281349221E-04  1.00407321853E-03  1.02949269699E-03  1.05555567262E-03
  1.08227843562E-03  1.10967768858E-03  1.13777055694E-03  1.16657459964E-03
  1.19610782015E-03  1.22638867770E-03  1.25743609881E-03  1.28926948913E-03
  1.32190874556E-03  1.35537426870E-03  1.38968697559E-03  1.42486831280E-03
  1.46094026979E-03  1.49792539272E-03  1.53584679850E-03  1.57472818924E-03
  1.61459386706E-03  1.65546874933E-03  1.69737838417E-03  1.74034896646E-03
  1.78440735423E-03  1.82958108539E-03  1.87589839500E-03  1.92338823288E-03
  1.97208028174E-03  2.02200497568E-03  2.07319351926E-03  2.12567790700E-03
  2.17949094333E-03  2.23466626317E-03  2.29123835288E-03  2.34924257186E-03
  2.40871517463E-03  2.46969333351E-03  2.53221516183E-03  2.59631973777E-03
  2.66204712877E-03  2.72943841660E-03  2.79853572301E-03  2.86938223605E-03
  2.94202223711E-03  3.01650112856E-03  3.09286546211E-03  3.17116296797E-03
  3.25144258464E-03  3.33375448947E-03  3.41815013009E-03  3.50468225653E-03
  3.59340495418E-03  3.68437367761E-03  3.77764528524E-03  3.87327807486E-03
  3.97133182007E-03  4.07186780766E-03  4.17494887590E-03  4.28063945380E-03
  4.38900560142E-03  4.50011505112E-03  4.61403724994E-03  4.73084340295E-03
  4.85060651780E-03  4.97340145034E-03  5.09930495140E-03  5.22839571476E-03
  5.36075442635E-03  5.49646381468E-03  5.63560870253E-03  5.77827605999E-03
  5.92455505880E-03  6.07453712809E-03  6.22831601154E-03  6.38598782596E-03
  6.54765112137E-03  6.71340694258E-03  6.88335889238E-03  7.05761319628E-03
  7.23627876888E-03  7.41946728199E-03  7.60729323439E-03  7.79987402340E-03
  7.99733001831E-03  8.19978463552E-03  8.40736441576E-03  8.62019910316E-03
  8.83842172633E-03  9.06216868150E-03  9.29157981781E-03  9.52679852469E-03
  9.76797182147E-03  1.00152504493E-02  1.02687889655E-02  1.05287458397E-02
  1.07952835535E-02  1.10685687017E-02  1.13487720963E-02  1.16360688737E-02
  1.19306386036E-02  1.22326654017E-02  1.25423380446E-02  1.28598500878E-02
  1.31853999866E-02  1.35191912203E-02  1.38614324194E-02  1.42123374957E-02
  1.45721257762E-02  1.49410221405E-02  1.53192571606E-02  1.57070672459E-02
  1.61046947903E-02  1.65123883238E-02  1.69304026683E-02  1.73589990963E-02
  1.77984454945E-02  1.82490165313E-02  1.87109938282E-02  1.91846661360E-02
  1.96703295154E-02  2.01682875217E-02  2.06788513950E-02  2.12023402543E-02
  2.17390812972E-02  2.22894100042E-02  2.28536703488E-02  2.34322150121E-02
  2.40254056032E-02  2.46336128856E-02  2.52572170087E-02  2.58966077453E-02
  2.65521847355E-02  2.72243577361E-02  2.79135468774E-02  2.86201829247E-02
  2.93447075488E-02  3.00875736011E-02  3.08492453970E-02  3.16301990063E-02
  3.24309225503E-02  3.32519165073E-02  3.40936940252E-02  3.49567812425E-02
  3.58417176168E-02  3.67490562619E-02  3.76793642943E-02  3.86332231866E-02
  3.96112291318E-02  4.06139934153E-02  4.16421427975E-02  4.26963199052E-02
  4.37771836335E-02  4.48854095573E-02  4.60216903540E-02  4.71867362360E-02
  4.83812753948E-02  4.96060544565E-02  5.08618389478E-02  5.21494137747E-02
  5.34695837136E-02  5.48231739137E-02  5.62110304127E-02  5.76340206664E-02
  5.90930340898E-02  6.05889826138E-02  6.21228012551E-02  6.36954487001E-02
  6.53079079047E-02  6.69611867084E-02  6.86563184644E-02  7.03943626850E-02
  7.21764057045E-02  7.40035613579E-02  7.58769716768E-02  7.77978076037E-02
  7.97672697237E-02  8.17865890146E-02  8.38570276167E-02  8.59798796215E-02
  8.81564718808E-02  9.03881648354E-02  9.26763533661E-02  9.50224676652E-02
  9.74279741306E-02  9.98943762821E-02  1.02423215701E-01  1.05016072995E-01
  1.07674568784E-01  1.10400364714E-01  1.13195164497E-01  1.16060714973E-01
  1.18998807204E-01  1.22011277595E-01  1.25100009036E-01  1.28266932087E-01
  1.31514026176E-01  1.34843320843E-01  1.38256897006E-01  1.41756888261E-01
  1.45345482216E-01  1.49024921860E-01  1.52797506962E-01  1.56665595511E-01
  1.60631605187E-01  1.64698014876E-01  1.68867366217E-01  1.73142265189E-01
  1.77525383744E-01  1.82019461474E-01  1.86627307323E-01  1.91351801345E-01
  1.96195896502E-01  2.01162620513E-01  2.06255077740E-01  2.11476451135E-01
  2.16830004228E-01  2.22319083162E-01  2.27947118791E-01  2.33717628821E-01
  2.39634220007E-01  2.45700590412E-01  2.51920531715E-01  2.58297931582E-01
  2.64836776095E-01  2.71541152245E-01  2.78415250486E-01  2.85463367351E-01
  2.92689908145E-01  3.00099389690E-01  3.07696443153E-01  3.15485816940E-01
  3.23472379664E-01  3.31661123185E-01  3.40057165736E-01  3.48665755116E-01
  3.57492271973E-01  3.66542233169E-01  3.75821295223E-01  3.85335257851E-01
  3.95090067589E-01  4.05091821512E-01  4.15346771041E-01  4.25861325854E-01
  4.36642057888E-01  4.47695705454E-01  4.59029177439E-01  4.70649557634E-01
  4.82564109155E-01  4.94780278983E-01  5.07305702622E-01  5.20148208871E-01
  5.33315824713E-01  5.46816780337E-01  5.60659514280E-01  5.74852678701E-01
  5.89405144790E-01  6.04326008312E-01  6.19624595292E-01  6.35310467846E-01
  6.51393430154E-01  6.67883534591E-01  6.84791088009E-01  7.02126658180E-01
  7.19901080399E-01  7.38125464259E-01  7.56811200593E-01  7.75969968594E-01
  7.95613743116E-01  8.15754802158E-01  8.36405734537E-01  8.57579447758E-01
  8.79289176081E-01  9.01548488794E-01  9.24371298690E-01  9.47771870769E-01
  9.71764831152E-01  9.96365176217E-01  1.02158828198E+00  1.04744991371E+00
  1.07396623577E+00  1.10115382171E+00  1.12902966466E+00  1.15761118794E+00
  1.18691625593E+00  1.21696318525E+00  1.24777075620E+00  1.27935822452E+00
  1.31174533341E+00  1.34495232587E+00  1.37899995734E+00  1.41390950871E+00
  1.44970279958E+00  1.48640220192E+00  1.52403065405E+00  1.56261167499E+00
  1.60216937911E+00  1.64272849129E+00  1.68431436228E+00  1.72695298461E+00
  1.77067100880E+00  1.81549576004E+00  1.86145525526E+00  1.90857822064E+00
  1.95689410957E+00  2.00643312105E+00  2.05722621858E+00  2.10930514949E+00
  2.16270246482E+00  2.21745153962E+00  2.27358659384E+00  2.33114271373E+00
  2.39015587373E+00  2.45066295899E+00  2.51270178841E+00  2.57631113827E+00
  2.64153076649E+00  2.70840143745E+00  2.77696494752E+00  2.84726415110E+00
  2.91934298749E+00  2.99324650832E+00  3.06902090568E+00  3.14671354104E+00
  3.22637297483E+00  3.30804899679E+00  3.39179265709E+00  3.47765629824E+00
  3.56569358782E+00  3.65595955199E+00  3.74851060992E+00  3.84340460905E+00
  3.94070086119E+00  4.04046017969E+00  4.14274491735E+00  4.24761900548E+00
  4.35514799379E+00  4.46539909140E+00  4.57844120883E+00  4.69434500109E+00
  4.81318291182E+00  4.93502921859E+00  5.05996007929E+00  5.18805357979E+00
  5.31938978269E+00  5.45405077740E+00  5.59212073142E+00  5.73368594297E+00
  5.87883489491E+00  6.02765831006E+00  6.18024920790E+00  6.33670296272E+00
  6.49711736319E+00  6.66159267354E+00  6.83023169620E+00  7.00313983605E+00
  7.18042516629E+00  7.36219849603E+00  7.54857343953E+00  7.73966648718E+00
  7.93559707837E+00  8.13648767609E+00  8.34246384350E+00  8.55365432241E+00
  8.77019111375E+00  8.99220956006E+00  9.21984843010E+00  9.45325000557E+00
  9.69256017005E+00  9.93792850019E+00  1.01895083592E+01  1.04474569926E+01
  1.07119356268E+01  1.09831095695E+01  1.12611483132E+01  1.15462256413E+01
  1.18385197362E+01  1.21382132914E+01  1.24454936251E+01  1.27605527974E+01
  1.30835877307E+01  1.34148003322E+01  1.37543976207E+01  1.41025918554E+01
  1.44596006692E+01  1.48256472041E+01  1.52009602512E+01  1.55857743933E+01
  1.59803301518E+01  1.63848741368E+01  1.67996592016E+01  1.72249446003E+01
  1.76609961502E+01  1.81080863975E+01  1.85664947884E+01  1.90365078429E+01
  1.95184193346E+01  2.00125304737E+01  2.05191500959E+01  2.10385948549E+01
  2.15711894205E+01  2.21172666818E+01  2.26771679548E+01  2.32512431960E+01
  2.38398512210E+01  2.44433599292E+01  2.50621465331E+01  2.56965977944E+01
  2.63471102659E+01  2.70140905390E+01  2.76979554981E+01  2.83991325811E+01
  2.91180600464E+01  2.98551872471E+01  3.06109749118E+01  3.13858954323E+01
  3.21804331592E+01  3.29950847044E+01  3.38303592517E+01  3.46867788748E+01
  3.55648788638E+01  3.64652080599E+01  3.73883291982E+01  3.83348192593E+01
  3.93052698303E+01  4.03002874746E+01  4.13204941104E+01  4.23665274002E+01
  4.34390411488E+01  4.45387057122E+01  4.56662084165E+01  4.68222539877E+01
  4.80075649919E+01  4.92228822870E+01  5.04689654859E+01  5.17465934311E+01
  5.30565646818E+01  5.43996980126E+01  5.57768329255E+01  5.71888301748E+01
  5.86365723045E+01  6.01209642008E+01  6.16429336568E+01  6.32034319531E+01
  6.48034344518E+01  6.64439412066E+01  6.81259775876E+01  6.98505949223E+01
  7.16188711527E+01  7.34319115090E+01  7.52908492004E+01  7.71968461236E+01
  7.91510935885E+01  8.11548130636E+01  8.32092569387E+01  8.53157093081E+01
  8.74754867731E+01  8.96899392649E+01  9.19604508885E+01  9.42884407875E+01
  9.66753640313E+01  9.91227125247E+01  1.01632015940E+02  1.04204842674E+02
  1.06842800827E+02  1.09547539208E+02  1.12320748368E+02  1.15164161651E+02
  1.18079556285E+02  1.21068754485E+02  1.24133624598E+02  1.27276082267E+02
  1.30498091630E+02  1.33801666550E+02  1.37188871866E+02  1.40661824693E+02
  1.44222695740E+02  1.47873710666E+02  1.51617151475E+02  1.55455357939E+02
  1.59390729063E+02  1.63425724581E+02  1.67562866497E+02  1.71804740659E+02
  1.76153998376E+02  1.80613358077E+02  1.85185607007E+02  1.89873602969E+02
  1.94680276114E+02  1.99608630768E+02  2.04661747315E+02
  </PP_R>
  <PP_RAB>
  1.22843989510E-09  1.25953799910E-09  1.29142335535E-09  1.32411589324E-09
  1.35763604667E-09  1.39200476682E-09  1.42724353526E-09  1.46337437737E-09
  1.50041987611E-09  1.53840318611E-09  1.57734804818E-09  1.61727880413E-09
  1.65822041198E-09  1.70019846156E-09  1.74323919053E-09  1.78736950074E-09
  1.83261697508E-09  1.87900989467E-09  1.92657725663E-09  1.97534879208E-09
  2.02535498483E-09  2.07662709037E-09  2.12919715545E-09  2.18309803806E-09
  2.23836342801E-09  2.29502786797E-09  2.35312677505E-09  2.41269646297E-09
  2.47377416472E-09  2.53639805585E-09  2.60060727833E-09  2.66644196502E-09
  2.73394326473E-09  2.80315336799E-09  2.87411553335E-09  2.94687411448E-09
  3.02147458785E-09  3.09796358121E-09  3.17638890264E-09  3.25679957055E-09
  3.33924584420E-09  3.42377925521E-09  3.51045263970E-09  3.59932017137E-09
  3.69043739531E-09  3.78386126277E-09  3.87965016668E-09  3.97786397824E-09
  4.07856408428E-09  4.18181342564E-09  4.28767653652E-09  4.39621958481E-09
  4.50751041346E-09  4.62161858284E-09  4.73861541428E-09  4.85857403461E-09
  4.98156942187E-09  5.10767845219E-09  5.23697994781E-09  5.36955472637E-09
  5.50548565143E-09  5.64485768424E-09  5.78775793686E-09  5.93427572660E-09
  6.08450263184E-09  6.23853254930E-09  6.39646175268E-09  6.55838895288E-09
  6.72441535967E-09  6.89464474495E-09  7.06918350765E-09  7.24814074015E-09
  7.43162829657E-09  7.61976086259E-09  7.81265602719E-09  8.01043435613E-09
  8.21321946731E-09  8.42113810802E-09  8.63432023418E-09  8.85289909155E-09
  9.07701129905E-09  9.30679693408E-09  9.54239962017E-09  9.78396661664E-09
  1.00316489108E-08  1.02856013120E-08  1.05459825489E-08  1.08129553681E-08
  1.10866866365E-08  1.13673474449E-08  1.16551132155E-08  1.19501638113E-08
  1.22526836485E-08  1.25628618118E-08  1.28808921727E-08  1.32069735105E-08
  1.35413096367E-08  1.38841095222E-08  1.42355874281E-08  1.45959630396E-08
  1.49654616031E-08  1.53443140673E-08  1.57327572273E-08  1.61310338727E-08
  1.65393929393E-08  1.69580896650E-08  1.73873857487E-08  1.78275495146E-08
  1.82788560792E-08  1.87415875239E-08  1.92160330709E-08  1.97024892641E-08
  2.02012601544E-08  2.07126574900E-08  2.12370009107E-08  2.17746181483E-08
  2.23258452311E-08  2.28910266940E-08  2.34705157937E-08  2.40646747298E-08
  2.46738748709E-08  2.52984969871E-08  2.59389314874E-08  2.65955786643E-08
  2.72688489436E-08  2.79591631411E-08  2.86669527258E-08  2.93926600891E-08
  3.01367388218E-08  3.08996539973E-08  3.16818824624E-08  3.24839131354E-08
  3.33062473115E-08  3.41493989764E-08  3.50138951274E-08  3.59002761025E-08
  3.68090959189E-08  3.77409226185E-08  3.86963386233E-08  3.96759410994E-08
  4.06803423303E-08  4.17101700993E-08  4.27660680825E-08  4.38486962504E-08
  4.49587312808E-08  4.60968669818E-08  4.72638147252E-08  4.84603038914E-08
  4.96870823251E-08  5.09449168027E-08  5.22345935116E-08  5.35569185419E-08
  5.49127183897E-08  5.63028404741E-08  5.77281536666E-08  5.91895488343E-08
  6.06879393968E-08  6.22242618970E-08  6.37994765865E-08  6.54145680257E-08
  6.70705456993E-08  6.87684446473E-08  7.05093261118E-08  7.22942782004E-08
  7.41244165663E-08  7.60008851055E-08  7.79248566719E-08  7.98975338104E-08
  8.19201495084E-08  8.39939679666E-08  8.61202853890E-08  8.83004307932E-08
  9.05357668411E-08  9.28276906905E-08  9.51776348683E-08  9.75870681662E-08
  1.00057496558E-07  1.02590464143E-07  1.05187554108E-07  1.07850389718E-07
  1.10580635332E-07  1.13379997443E-07  1.16250225743E-07  1.19193114219E-07
  1.22210502271E-07  1.25304275865E-07  1.28476368711E-07  1.31728763470E-07
  1.35063492993E-07  1.38482641597E-07  1.41988346360E-07  1.45582798461E-07
  1.49268244550E-07  1.53046988151E-07  1.56921391102E-07  1.60893875031E-07
  1.64966922869E-07  1.69143080404E-07  1.73424957870E-07  1.77815231581E-07
  1.82316645599E-07  1.86932013456E-07  1.91664219907E-07  1.96516222734E-07
  2.01491054597E-07  2.06591824929E-07  2.11821721876E-07  2.17184014295E-07
  2.22682053793E-07  2.28319276824E-07  2.34099206835E-07  2.40025456470E-07
  2.46101729830E-07  2.52331824782E-07  2.58719635338E-07  2.65269154089E-07
  2.71984474696E-07  2.78869794454E-07  2.85929416911E-07  2.93167754561E-07
  3.00589331602E-07  3.08198786760E-07  3.16000876192E-07  3.24000476459E-07
  3.32202587570E-07  3.40612336113E-07  3.49234978454E-07  3.58075904025E-07
  3.67140638692E-07  3.76434848210E-07  3.85964341762E-07  3.95735075592E-07
  4.05753156726E-07  4.16024846792E-07  4.26556565930E-07  4.37354896807E-07
  4.48426588731E-07  4.59778561872E-07  4.71417911580E-07  4.83351912829E-07
  4.95588024758E-07  5.08133895335E-07  5.20997366138E-07  5.34186477255E-07
  5.47709472309E-07  5.61574803613E-07  5.75791137450E-07  5.90367359491E-07
  6.05312580350E-07  6.20636141277E-07  6.36347619995E-07  6.52456836691E-07
  6.68973860149E-07  6.85909014046E-07  7.03272883405E-07  7.21076321210E-07
  7.39330455189E-07  7.58046694770E-07  7.77236738211E-07  7.96912579915E-07
  8.17086517923E-07  8.37771161603E-07  8.58979439531E-07  8.80724607570E-07
  9.03020257160E-07  9.25880323806E-07  9.49319095794E-07  9.73351223120E-07
  9.97991726646E-07  1.02325600749E-06  1.04915985665E-06  1.07571946487E-06
  1.10295143277E-06  1.13087278122E-06  1.15950096198E-06  1.18885386858E-06
  1.21894984755E-06  1.24980770985E-06  1.28144674266E-06  1.31388672139E-06
  1.34714792210E-06  1.38125113411E-06  1.41621767305E-06  1.45206939413E-06
  1.48882870585E-06  1.52651858398E-06  1.56516258592E-06  1.60478486542E-06
  1.64541018770E-06  1.68706394492E-06  1.72977217202E-06  1.77356156303E-06
  1.81845948776E-06  1.86449400886E-06  1.91169389941E-06  1.96008866088E-06
  2.00970854157E-06  2.06058455552E-06  2.11274850189E-06  2.16623298485E-06
  2.22107143395E-06  2.27729812499E-06  2.33494820150E-06  2.39405769664E-06
  2.45466355577E-06  2.51680365953E-06  2.58051684751E-06  2.64584294252E-06
  2.71282277549E-06  2.78149821102E-06  2.85191217347E-06  2.92410867386E-06
  2.99813283737E-06  3.07403093150E-06  3.15185039502E-06  3.23163986765E-06
  3.31344922039E-06  3.39732958675E-06  3.48333339470E-06  3.57151439942E-06
  3.66192771689E-06  3.75462985840E-06  3.84967876579E-06  3.94713384773E-06
  4.04705601681E-06  4.14950772764E-06  4.25455301588E-06  4.36225753826E-06
  4.47268861360E-06  4.58591526492E-06  4.70200826257E-06  4.82104016844E-06
  4.94308538136E-06  5.06822018355E-06  5.19652278834E-06  5.32807338903E-06
  5.46295420904E-06  5.60124955326E-06  5.74304586079E-06  5.88843175893E-06
  6.03749811861E-06  6.19033811115E-06  6.34704726652E-06  6.50772353305E-06
  6.67246733862E-06  6.84138165350E-06  7.01457205461E-06  7.19214679160E-06
  7.37421685446E-06  7.56089604290E-06  7.75230103750E-06  7.94855147261E-06
  8.14977001113E-06  8.35608242121E-06  8.56761765481E-06  8.78450792835E-06
  9.00688880531E-06  9.23489928096E-06  9.46868186929E-06  9.70838269202E-06
  9.95415156996E-06  1.02061421167E-05  1.04645118344E-05  1.07294222128E-05
  1.10010388292E-05  1.12795314531E-05  1.15650741513E-05  1.18578453973E-05
  1.21580281827E-05  1.24658101315E-05  1.27813836174E-05  1.31049458841E-05
  1.34366991687E-05  1.37768508276E-05  1.41256134667E-05  1.44832050741E-05
  1.48498491561E-05  1.52257748773E-05  1.56112172034E-05  1.60064170484E-05
  1.64116214252E-05  1.68270835996E-05  1.72530632489E-05  1.76898266245E-05
  1.81376467176E-05  1.85968034303E-05  1.90675837505E-05  1.95502819312E-05
  2.00451996746E-05  2.05526463203E-05  2.10729390390E-05  2.16064030306E-05
  2.21533717274E-05  2.27141870027E-05  2.32891993843E-05  2.38787682736E-05
  2.44832621704E-05  2.51030589031E-05  2.57385458648E-05  2.63901202554E-05
  2.70581893304E-05  2.77431706544E-05  2.84454923633E-05  2.91655934308E-05
  2.99039239437E-05  3.06609453825E-05  3.14371309102E-05  3.22329656682E-05
  3.30489470789E-05  3.38855851574E-05  3.47434028297E-05  3.56229362598E-05
  3.65247351846E-05  3.74493632580E-05  3.83973984024E-05  3.93694331708E-05
  4.03660751165E-05  4.13879471732E-05  4.24356880441E-05  4.35099526015E-05
  4.46114122956E-05  4.57407555746E-05  4.68986883149E-05  4.80859342620E-05
  4.93032354834E-05  5.05513528319E-05  5.18310664215E-05  5.31431761149E-05
  5.44885020233E-05  5.58678850192E-05  5.72821872619E-05  5.87322927363E-05
  6.02191078056E-05  6.17435617776E-05  6.33066074856E-05  6.49092218841E-05
  6.65524066592E-05  6.82371888550E-05  6.99646215151E-05  7.17357843412E-05
  7.35517843677E-05  7.54137566538E-05  7.73228649927E-05  7.92803026393E-05
  8.12872930558E-05  8.33450906766E-05  8.54549816922E-05  8.76182848531E-05
  8.98363522943E-05  9.21105703801E-05  9.44423605709E-05  9.68331803114E-05
  9.92845239417E-05  1.01797923631E-04  1.04374950337E-04  1.07017214785E-04
  1.09726368475E-04  1.12504104718E-04  1.15352159688E-04  1.18272313514E-04
  1.21266391385E-04  1.24336264698E-04  1.27483852225E-04  1.30711121309E-04
  1.34020089099E-04  1.37412823807E-04  1.40891446003E-04  1.44458129940E-04
  1.48115104910E-04  1.51864656642E-04  1.55709128728E-04  1.59650924089E-04
  1.63692506474E-04  1.67836402004E-04  1.72085200749E-04  1.76441558347E-04
  1.80908197662E-04  1.85487910490E-04  1.90183559300E-04  1.94998079025E-04
  1.99934478898E-04  2.04995844328E-04  2.10185338834E-04  2.15506206019E-04
  2.20961771598E-04  2.26555445477E-04  2.32290723885E-04  2.38171191557E-04
  2.44200523977E-04  2.50382489673E-04  2.56720952577E-04  2.63219874432E-04
  2.69883317278E-04  2.76715445982E-04  2.83720530848E-04  2.90902950282E-04
  2.98267193529E-04  3.05817863482E-04  3.13559679555E-04  3.21497480634E-04
  3.29636228105E-04  3.37981008948E-04  3.46537038925E-04  3.55309665831E-04
  3.64304372845E-04  3.73526781952E-04  3.82982657456E-04  3.92677909588E-04
  4.02618598197E-04  4.12810936535E-04  4.23261295148E-04  4.33976205847E-04
  4.44962365803E-04  4.56226641722E-04  4.67776074144E-04  4.79617881839E-04
  4.91759466324E-04  5.04208416483E-04  5.16972513316E-04  5.30059734798E-04
  5.43478260870E-04  5.57236478546E-04  5.71342987161E-04  5.85806603742E-04
  6.00636368519E-04  6.15841550580E-04  6.31431653657E-04  6.47416422072E-04
  6.63805846826E-04  6.80610171843E-04  6.97839900374E-04  7.15505801558E-04
  7.33618917161E-04  7.52190568468E-04  7.71232363366E-04  7.90756203597E-04
  8.10774292196E-04  8.31299141121E-04  8.52343579071E-04  8.73920759503E-04
  8.96044168859E-04  9.18727634989E-04  9.41985335797E-04  9.65831808105E-04
  9.90281956734E-04  1.01535106382E-03  1.04105479838E-03  1.06740922607E-03
  1.09443081928E-03  1.12213646737E-03  1.15054348729E-03  1.17966963434E-03
  1.20953311331E-03  1.24015258985E-03  1.27154720213E-03  1.30373657281E-03
  1.33674082128E-03  1.37058057628E-03  1.40527698876E-03  1.44085174510E-03
  1.47732708068E-03  1.51472579379E-03  1.55307125982E-03  1.59238744594E-03
  1.63269892606E-03  1.67403089615E-03  1.71640919005E-03  1.75986029556E-03
  1.80441137105E-03  1.85009026239E-03  1.89692552036E-03  1.94494641853E-03
  1.99418297153E-03  2.04466595380E-03  2.09642691886E-03  2.14949821898E-03
  2.20391302546E-03  2.25970534932E-03  2.31691006259E-03  2.37556292007E-03
  2.43570058171E-03  2.49736063549E-03  2.56058162097E-03  2.62540305332E-03
  2.69186544804E-03  2.76001034629E-03  2.82988034086E-03  2.90151910276E-03
  2.97497140855E-03  3.05028316831E-03  3.12750145435E-03  3.20667453061E-03