<PP_INFO>
Generated using Vanderbilt code, version   7  3  6                              
Author: kfg    Generation date:   23    7 2013                              
Automatically converted from original format                                    
    1        The Pseudo was generated with a Scalar-Relativistic Calculation
  1.80000000000E+00    Local Potential cutoff radius
nl pn  l   occ               Rcut            Rcut US             E pseu
4S  4  0  2.00      0.00000000000      2.00000000000     -2.54016973500
4P  4  1  6.00      0.00000000000      2.00000000000     -1.36841154000
5S  5  0  0.50      0.00000000000      2.00000000000     -0.29713560700
4D  4  2  0.00      0.00000000000      2.20000000000     -0.20750446100
5P  5  1  0.00      0.00000000000      2.00000000000     -0.16
</PP_INFO>


<PP_HEADER>
   0                   Version Number
  Rb                   Element
   US                  Ultrasoft pseudopotential
    T                  Nonlinear Core Correction
SLA  PW   PSX  PSC     PBEsol  Exchange-Correlation functional
    9.00000000000      Z valence
  -52.93249290460      Total energy
    0.00000    0.00000 Suggested cutoff for wfc and rho
    2                  Max angular momentum component
  881                  Number of points in mesh
    5    6             Number of Wavefunctions, Number of Projectors
 Wavefunctions         nl  l   occ
                       4S  0  2.00
                       4P  1  6.00
                       5S  0  0.50
                       4D  2  0.00
                       5P  1  0.00
</PP_HEADER>


<PP_MESH>
  <PP_R>
  0.00000000000E+00  1.14515700216E-06  2.30988886508E-06  3.49453019367E-06
  4.69942131248E-06  5.92490836340E-06  7.17134340516E-06  8.43908451440E-06
  9.72849588864E-06  1.10399479508E-05  1.23738174557E-05  1.37304875982E-05
  1.51103481234E-05  1.65137954385E-05  1.79412327268E-05  1.93930700634E-05
  2.08697245331E-05  2.23716203500E-05  2.38991889799E-05  2.54528692637E-05
  2.70331075435E-05  2.86403577914E-05  3.02750817391E-05  3.19377490113E-05
  3.36288372601E-05  3.53488323023E-05  3.70982282594E-05  3.88775276988E-05
  4.06872417790E-05  4.25278903957E-05  4.44000023317E-05  4.63041154085E-05
  4.82407766409E-05  5.02105423942E-05  5.22139785441E-05  5.42516606389E-05
  5.63241740654E-05  5.84321142164E-05  6.05760866624E-05  6.27567073253E-05
  6.49746026551E-05  6.72304098102E-05  6.95247768404E-05  7.18583628729E-05
  7.42318383019E-05  7.66458849808E-05  7.91011964187E-05  8.15984779789E-05
  8.41384470822E-05  8.67218334125E-05  8.93493791267E-05  9.20218390678E-05
  9.47399809819E-05  9.75045857385E-05  1.00316447555E-04  1.03176374225E-04
  1.06085187350E-04  1.09043722576E-04  1.12052829833E-04  1.15113373579E-04
  1.18226233049E-04  1.21392302507E-04  1.24612491503E-04  1.27887725137E-04
  1.31218944318E-04  1.34607106043E-04  1.38053183663E-04  1.41558167171E-04
  1.45123063481E-04  1.48748896717E-04  1.52436708513E-04  1.56187558304E-04
  1.60002523638E-04  1.63882700480E-04  1.67829203530E-04  1.71843166542E-04
  1.75925742650E-04  1.80078104698E-04  1.84301445581E-04  1.88596978581E-04
  1.92965937724E-04  1.97409578125E-04  2.01929176358E-04  2.06526030815E-04
  2.11201462084E-04  2.15956813324E-04  2.20793450658E-04  2.25712763557E-04
  2.30716165244E-04  2.35805093101E-04  2.40981009077E-04  2.46245400113E-04
  2.51599778566E-04  2.57045682647E-04  2.62584676857E-04  2.68218352444E-04
  2.73948327852E-04  2.79776249193E-04  2.85703790715E-04  2.91732655287E-04
  2.97864574886E-04  3.04101311092E-04  3.10444655599E-04  3.16896430728E-04
  3.23458489948E-04  3.30132718413E-04  3.36921033499E-04  3.43825385357E-04
  3.50847757475E-04  3.57990167243E-04  3.65254666538E-04  3.72643342311E-04
  3.80158317183E-04  3.87801750064E-04  3.95575836762E-04  4.03482810622E-04
  4.11524943166E-04  4.19704544742E-04  4.28023965191E-04  4.36485594522E-04
  4.45091863597E-04  4.53845244831E-04  4.62748252901E-04  4.71803445469E-04
  4.81013423916E-04  4.90380834092E-04  4.99908367070E-04  5.09598759929E-04
  5.19454796529E-04  5.29479308320E-04  5.39675175149E-04  5.50045326092E-04
  5.60592740293E-04  5.71320447820E-04  5.82231530535E-04  5.93329122981E-04
  6.04616413283E-04  6.16096644059E-04  6.27773113359E-04  6.39649175605E-04
  6.51728242561E-04  6.64013784309E-04  6.76509330247E-04  6.89218470104E-04
  7.02144854970E-04  7.15292198345E-04  7.28664277207E-04  7.42264933094E-04
  7.56098073212E-04  7.70167671555E-04  7.84477770046E-04  7.99032479700E-04
  8.13835981802E-04  8.28892529112E-04  8.44206447086E-04  8.59782135115E-04
  8.75624067793E-04  8.91736796202E-04  9.08124949215E-04  9.24793234832E-04
  9.41746441530E-04  9.58989439636E-04  9.76527182730E-04  9.94364709067E-04
  1.01250714302E-03  1.03095969656E-03  1.04972767076E-03  1.06881645728E-03
  1.08823153996E-03  1.10797849639E-03  1.12806299948E-03  1.14849081912E-03
  1.16926782382E-03  1.19039998243E-03  1.21189336579E-03  1.23375414854E-03
  1.25598861087E-03  1.27860314030E-03  1.30160423355E-03  1.32499849839E-03
  1.34879265554E-03  1.37299354059E-03  1.39760810600E-03  1.42264342306E-03
  1.44810668391E-03  1.47400520368E-03  1.50034642250E-03  1.52713790769E-03
  1.55438735593E-03  1.58210259546E-03  1.61029158832E-03  1.63896243268E-03
  1.66812336511E-03  1.69778276299E-03  1.72794914687E-03  1.75863118299E-03
  1.78983768570E-03  1.82157762002E-03  1.85386010421E-03  1.88669441243E-03
  1.92008997731E-03  1.95405639277E-03  1.98860341670E-03  2.02374097379E-03
  2.05947915838E-03  2.09582823736E-03  2.13279865311E-03  2.17040102653E-03
  2.20864616003E-03  2.24754504073E-03  2.28710884350E-03  2.32734893426E-03
  2.36827687321E-03  2.40990441816E-03  2.45224352790E-03  2.49530636562E-03
  2.53910530246E-03  2.58365292100E-03  2.62896201891E-03  2.67504561261E-03
  2.72191694103E-03  2.76958946939E-03  2.81807689310E-03  2.86739314164E-03
  2.91755238262E-03  2.96856902583E-03  3.02045772736E-03  3.07323339382E-03
  3.12691118664E-03  3.18150652642E-03  3.23703509733E-03  3.29351285168E-03
  3.35095601441E-03  3.40938108783E-03  3.46880485635E-03  3.52924439126E-03
  3.59071705567E-03  3.65324050949E-03  3.71683271449E-03  3.78151193948E-03
  3.84729676556E-03  3.91420609143E-03  3.98225913885E-03  4.05147545813E-03
  4.12187493380E-03  4.19347779025E-03  4.26630459760E-03  4.34037627759E-03
  4.41571410957E-03  4.49233973664E-03  4.57027517187E-03  4.64954280460E-03
  4.73016540688E-03  4.81216614003E-03  4.89556856127E-03  4.98039663051E-03
  5.06667471720E-03  5.15442760737E-03  5.24368051073E-03  5.33445906791E-03
  5.42678935784E-03  5.52069790521E-03  5.61621168814E-03  5.71335814589E-03
  5.81216518676E-03  5.91266119609E-03  6.01487504445E-03  6.11883609590E-03
  6.22457421643E-03  6.33211978256E-03  6.44150369005E-03  6.55275736279E-03
  6.66591276179E-03  6.78100239442E-03  6.89805932369E-03  7.01711717781E-03
  7.13821015978E-03  7.26137305728E-03  7.38664125263E-03  7.51405073294E-03
  7.64363810052E-03  7.77544058328E-03  7.90949604554E-03  8.04584299884E-03
  8.18452061302E-03  8.32556872748E-03  8.46902786260E-03  8.61493923142E-03
  8.76334475146E-03  8.91428705675E-03  9.06780951008E-03  9.22395621550E-03
  9.38277203093E-03  9.54430258108E-03  9.70859427054E-03  9.87569429716E-03
  1.00456506655E-02  1.02185122008E-02  1.03943285628E-02  1.05731502601E-02
  1.07550286648E-02  1.09400160269E-02  1.11281654899E-02  1.13195311053E-02
  1.15141678489E-02  1.17121316359E-02  1.19134793376E-02  1.21182687973E-02
  1.23265588470E-02  1.25384093243E-02  1.27538810900E-02  1.29730360447E-02
  1.31959371475E-02  1.34226484337E-02  1.36532350328E-02  1.38877631881E-02
  1.41263002748E-02  1.43689148201E-02  1.46156765225E-02  1.48666562719E-02
  1.51219261697E-02  1.53815595502E-02  1.56456310010E-02  1.59142163847E-02
  1.61873928608E-02  1.64652389074E-02  1.67478343444E-02  1.70352603560E-02
  1.73275995141E-02  1.76249358022E-02  1.79273546391E-02  1.82349429040E-02
  1.85477889611E-02  1.88659826848E-02  1.91896154862E-02  1.95187803386E-02
  1.98535718048E-02  2.01940860639E-02  2.05404209391E-02  2.08926759255E-02
  2.12509522194E-02  2.16153527464E-02  2.19859821920E-02  2.23629470306E-02
  2.27463555571E-02  2.31363179172E-02  2.35329461396E-02  2.39363541680E-02
  2.43466578936E-02  2.47639751888E-02  2.51884259407E-02  2.56201320858E-02
  2.60592176450E-02  2.65058087591E-02  2.69600337250E-02  2.74220230327E-02
  2.78919094029E-02  2.83698278248E-02  2.88559155952E-02  2.93503123576E-02
  2.98531601426E-02  3.03646034088E-02  3.08847890838E-02  3.14138666070E-02
  3.19519879720E-02  3.24993077708E-02  3.30559832376E-02  3.36221742947E-02
  3.41980435977E-02  3.47837565827E-02  3.53794815139E-02  3.59853895312E-02
  3.66016547006E-02  3.72284540629E-02  3.78659676856E-02  3.85143787139E-02
  3.91738734239E-02  3.98446412755E-02  4.05268749673E-02  4.12207704921E-02
  4.19265271924E-02  4.26443478185E-02  4.33744385864E-02  4.41170092371E-02
  4.48722730967E-02  4.56404471379E-02  4.64217520423E-02  4.72164122637E-02
  4.80246560925E-02  4.88467157215E-02  4.96828273126E-02  5.05332310645E-02
  5.13981712817E-02  5.22778964448E-02  5.31726592818E-02  5.40827168407E-02
  5.50083305635E-02  5.59497663611E-02  5.69072946898E-02  5.78811906290E-02
  5.88717339600E-02  5.98792092468E-02  6.09039059177E-02  6.19461183480E-02
  6.30061459453E-02  6.40842932351E-02  6.51808699480E-02  6.62961911095E-02
  6.74305771296E-02  6.85843538956E-02  6.97578528652E-02  7.09514111619E-02
  7.21653716720E-02  7.34000831428E-02  7.46559002829E-02  7.59331838645E-02
  7.72323008263E-02  7.85536243795E-02  7.98975341147E-02  8.12644161113E-02
  8.26546630480E-02  8.40686743159E-02  8.55068561329E-02  8.69696216610E-02
  8.84573911243E-02  8.99705919302E-02  9.15096587921E-02  9.30750338541E-02
  9.46671668180E-02  9.62865150730E-02  9.79335438264E-02  9.96087262377E-02
  1.01312543554E-01  1.03045485250E-01  1.04808049166E-01  1.06600741652E-01
  1.08424077714E-01  1.10278581162E-01  1.12164784757E-01  1.14083230371E-01
  1.16034469135E-01  1.18019061603E-01  1.20037577909E-01  1.22090597934E-01
  1.24178711471E-01  1.26302518395E-01  1.28462628835E-01  1.30659663348E-01
  1.32894253099E-01  1.35167040044E-01  1.37478677110E-01  1.39829828385E-01
  1.42221169309E-01  1.44653386870E-01  1.47127179795E-01  1.49643258758E-01
  1.52202346580E-01  1.54805178436E-01  1.57452502070E-01  1.60145078007E-01
  1.62883679772E-01  1.65669094112E-01  1.68502121223E-01  1.71383574978E-01
  1.74314283164E-01  1.77295087716E-01  1.80326844962E-01  1.83410425868E-01
  1.86546716285E-01  1.89736617209E-01  1.92981045039E-01  1.96280931834E-01
  1.99637225588E-01  2.03050890500E-01  2.06522907249E-01  2.10054273280E-01
  2.13646003084E-01  2.17299128496E-01  2.21014698989E-01  2.24793781974E-01
  2.28637463109E-01  2.32546846608E-01  2.36523055563E-01  2.40567232260E-01
  2.44680538513E-01  2.48864155997E-01  2.53119286582E-01  2.57447152687E-01
  2.61848997622E-01  2.66326085953E-01  2.70879703862E-01  2.75511159513E-01
  2.80221783434E-01  2.85012928898E-01  2.89885972307E-01  2.94842313591E-01
  2.99883376613E-01  3.05010609572E-01  3.10225485423E-01  3.15529502298E-01
  3.20924183940E-01  3.26411080135E-01  3.31991767163E-01  3.37667848248E-01
  3.43440954017E-01  3.49312742972E-01  3.55284901964E-01  3.61359146680E-01
  3.67537222132E-01  3.73820903161E-01  3.80211994948E-01  3.86712333530E-01
  3.93323786327E-01  4.00048252684E-01  4.06887664408E-01  4.13843986330E-01
  4.20919216867E-01  4.28115388595E-01  4.35434568837E-01  4.42878860250E-01
  4.50450401435E-01  4.58151367550E-01  4.65983970933E-01  4.73950461739E-01
  4.82053128588E-01  4.90294299218E-01  4.98676341159E-01  5.07201662409E-01
  5.15872712127E-01  5.24691981339E-01  5.33662003650E-01  5.42785355973E-01
  5.52064659272E-01  5.61502579310E-01  5.71101827420E-01  5.80865161279E-01
  5.90795385705E-01  6.00895353459E-01  6.11167966065E-01  6.21616174648E-01
  6.32242980775E-01  6.43051437321E-01  6.54044649348E-01  6.65225774992E-01
  6.76598026374E-01  6.88164670523E-01  6.99929030310E-01  7.11894485410E-01
  7.24064473265E-01  7.36442490079E-01  7.49032091815E-01  7.61836895222E-01
  7.74860578873E-01  7.88106884220E-01  8.01579616670E-01  8.15282646678E-01
  8.29219910861E-01  8.43395413123E-01  8.57813225814E-01  8.72477490890E-01
  8.87392421112E-01  9.02562301251E-01  9.17991489320E-01  9.33684417826E-01
  9.49645595043E-01  9.65879606309E-01  9.82391115341E-01  9.99184865576E-01
  1.01626568153E+00  1.03363847020E+00  1.05130822245E+00  1.06928001445E+00
  1.08755900915E+00  1.10615045776E+00  1.12505970123E+00  1.14429217183E+00
  1.16385339468E+00  1.18374898933E+00  1.20398467140E+00  1.22456625422E+00
  1.24549965047E+00  1.26679087391E+00  1.28844604111E+00  1.31047137317E+00
  1.33287319754E+00  1.35565794983E+00  1.37883217566E+00  1.40240253255E+00
  1.42637579179E+00  1.45075884043E+00  1.47555868327E+00  1.50078244481E+00
  1.52643737135E+00  1.55253083305E+00  1.57907032606E+00  1.60606347467E+00
  1.63351803349E+00  1.66144188967E+00  1.68984306520E+00  1.71872971918E+00
  1.74811015021E+00  1.77799279870E+00  1.80838624936E+00  1.83929923364E+00
  1.87074063224E+00  1.90271947768E+00  1.93524495684E+00  1.96832641368E+00
  2.00197335186E+00  2.03619543749E+00  2.07100250190E+00  2.10640454451E+00
  2.14241173563E+00  2.17903441943E+00  2.21628311690E+00  2.25416852886E+00
  2.29270153907E+00  2.33189321731E+00  2.37175482260E+00  2.41229780640E+00
  2.45353381592E+00  2.49547469747E+00  2.53813249986E+00  2.58151947785E+00
  2.62564809568E+00  2.67053103064E+00  2.71618117674E+00  2.76261164838E+00
  2.80983578412E+00  2.85786715056E+00  2.90671954618E+00  2.95640700532E+00
  3.00694380224E+00  3.05834445516E+00  3.11062373051E+00  3.16379664711E+00
  3.21787848051E+00  3.27288476738E+00  3.32883130995E+00  3.38573418059E+00
  3.44360972639E+00  3.50247457387E+00  3.56234563377E+00  3.62324010588E+00
  3.68517548400E+00  3.74816956097E+00  3.81224043378E+00  3.87740650874E+00
  3.94368650680E+00  4.01109946893E+00  4.07966476156E+00  4.14940208218E+00
  4.22033146497E+00  4.29247328657E+00  4.36584827193E+00  4.44047750026E+00
  4.51638241109E+00  4.59358481044E+00  4.67210687706E+00  4.75197116883E+00
  4.83320062920E+00  4.91581859383E+00  4.99984879727E+00  5.08531537976E+00
  5.17224289420E+00  5.26065631318E+00  5.35058103617E+00  5.44204289679E+00
  5.53506817028E+00  5.62968358099E+00  5.72591631011E+00  5.82379400342E+00
  5.92334477930E+00  6.02459723676E+00  6.12758046367E+00  6.23232404511E+00
  6.33885807191E+00  6.44721314921E+00  6.55742040533E+00  6.66951150069E+00
  6.78351863689E+00  6.89947456598E+00  7.01741259984E+00  7.13736661979E+00
  7.25937108631E+00  7.38346104891E+00  7.50967215624E+00  7.63804066631E+00
  7.76860345690E+00  7.90139803619E+00  8.03646255347E+00  8.17383581019E+00
  8.31355727100E+00  8.45566707520E+00  8.60020604816E+00  8.74721571314E+00
  8.89673830319E+00  9.04881677323E+00  9.20349481247E+00  9.36081685692E+00
  9.52082810217E+00  9.68357451633E+00  9.84910285332E+00  1.00174606662E+01
  1.01886963210E+01  1.03628590102E+01  1.05399987676E+01  1.07201664820E+01
  1.09034139119E+01  1.10897937009E+01  1.12793593923E+01  1.14721654447E+01
  1.16682672474E+01  1.18677211368E+01  1.20705844120E+01  1.22769153518E+01
  1.24867732311E+01  1.27002183379E+01  1.29173119910E+01  1.31381165570E+01
  1.33626954690E+01  1.35911132440E+01  1.38234355022E+01  1.40597289850E+01
  1.43000615753E+01  1.45445023157E+01  1.47931214294E+01  1.50459903399E+01
  1.53031816916E+01  1.55647693704E+01  1.58308285256E+01  1.61014355906E+01
  1.63766683058E+01  1.66566057402E+01  1.69413283143E+01  1.72309178234E+01
  1.75254574611E+01  1.78250318428E+01  1.81297270304E+01  1.84396305571E+01
  1.87548314520E+01  1.90754202663E+01  1.94014890990E+01  1.97331316233E+01
  2.00704431138E+01  2.04135204734E+01  2.07624622616E+01  2.11173687228E+01
  2.14783418146E+01  2.18454852376E+01  2.22189044650E+01  2.25987067730E+01
  2.29850012714E+01  2.33778989351E+01  2.37775126360E+01  2.41839571755E+01
  2.45973493171E+01  2.50178078204E+01  2.54454534751E+01  2.58804091354E+01
  2.63227997557E+01  2.67727524262E+01  2.72303964096E+01  2.76958631783E+01
  2.81692864518E+01  2.86508022354E+01  2.91405488593E+01  2.96386670183E+01
  3.01452998120E+01  3.06605927862E+01  3.11846939747E+01  3.17177539416E+01
  3.22599258247E+01  3.28113653794E+01  3.33722310237E+01  3.39426838835E+01
  3.45228878388E+01  3.51130095709E+01  3.57132186105E+01  3.63236873860E+01
  3.69445912732E+01  3.75761086458E+01  3.82184209265E+01  3.88717126392E+01
  3.95361714621E+01  4.02119882812E+01  4.08993572456E+01  4.15984758232E+01
  4.23095448571E+01  4.30327686238E+01  4.37683548915E+01  4.45165149798E+01
  4.52774638207E+01  4.60514200200E+01  4.68386059204E+01  4.76392476652E+01
  4.84535752632E+01  4.92818226550E+01  5.01242277801E+01  5.09810326451E+01
  5.18524833935E+01  5.27388303763E+01  5.36403282237E+01  5.45572359186E+01
  5.54898168710E+01  5.64383389932E+01  5.74030747774E+01  5.83843013733E+01
  5.93823006685E+01  6.03973593689E+01  6.14297690811E+01  6.24798263965E+01
  6.35478329762E+01  6.46340956378E+01  6.57389264437E+01  6.68626427903E+01
  6.80055674995E+01  6.91680289116E+01  7.03503609792E+01  7.15529033633E+01
  7.27760015313E+01  7.40200068554E+01  7.52852767145E+01  7.65721745959E+01
  7.78810702006E+01  7.92123395490E+01  8.05663650889E+01  8.19435358057E+01
  8.33442473340E+01  8.47689020710E+01  8.62179092924E+01  8.76916852700E+01
  8.91906533912E+01  9.07152442804E+01  9.22658959231E+01  9.38430537915E+01
  9.54471709726E+01  9.70787082981E+01  9.87381344773E+01  1.00425926231E+02
  1.02142568429E+02  1.03888554230E+02  1.05664385222E+02  1.07470571566E+02
  1.09307632144E+02  1.11176094710E+02  1.13076496035E+02  1.15009382069E+02
  1.16975308092E+02  1.18974838876E+02  1.21008548849E+02  1.23077022256E+02
  1.25180853329E+02  1.27320646457E+02  1.29497016363E+02  1.31710588275E+02
  1.33961998110E+02  1.36251892654E+02  1.38580929749E+02  1.40949778482E+02
  1.43359119379E+02  1.45809644596E+02  1.48302058122E+02  1.50837075978E+02
  1.53415426427E+02  1.56037850178E+02  1.58705100604E+02  1.61417943953E+02
  1.64177159573E+02  1.66983540133E+02  1.69837891852E+02  1.72741034730E+02
  1.75693802785E+02  1.78697044288E+02  1.81751622013E+02  1.84858413481E+02
  1.88018311214E+02  1.91232222989E+02  1.94501072099E+02  1.97825797624E+02
  2.01207354691E+02
  </PP_R>
  <PP_RAB>
  1.13547969614E-06  1.15488913685E-06  1.17463035487E-06  1.19470902145E-06
  1.21513090482E-06  1.23590187179E-06  1.25702788944E-06  1.27851502689E-06
  1.30036945696E-06  1.32259745801E-06  1.34520541572E-06  1.36819982492E-06
  1.39158729145E-06  1.41537453408E-06  1.43956838642E-06  1.46417579891E-06
  1.48920384076E-06  1.51465970207E-06  1.54055069580E-06  1.56688425993E-06
  1.59366795959E-06  1.62090948921E-06  1.64861667477E-06  1.67679747599E-06
  1.70545998868E-06  1.73461244702E-06  1.76426322596E-06  1.79442084357E-06
  1.82509396358E-06  1.85629139776E-06  1.88802210854E-06  1.92029521153E-06
  1.95311997819E-06  1.98650583841E-06  2.02046238332E-06  2.05499936798E-06
  2.09012671419E-06  2.12585451336E-06  2.16219302940E-06  2.19915270165E-06
  2.23674414792E-06  2.27497816750E-06  2.31386574428E-06  2.35341804991E-06
  2.39364644702E-06  2.43456249242E-06  2.47617794052E-06  2.51850474663E-06
  2.56155507041E-06  2.60534127940E-06  2.64987595252E-06  2.69517188373E-06
  2.74124208566E-06  2.78809979340E-06  2.83575846826E-06  2.88423180165E-06
  2.93353371903E-06  2.98367838387E-06  3.03468020178E-06  3.08655382459E-06
  3.13931415459E-06  3.19297634879E-06  3.24755582331E-06  3.30306825778E-06
  3.35952959984E-06  3.41695606974E-06  3.47536416500E-06  3.53477066514E-06
  3.59519263649E-06  3.65664743711E-06  3.71915272178E-06  3.78272644706E-06
  3.84738687645E-06  3.91315258563E-06  3.98004246784E-06  4.04807573922E-06
  4.11727194443E-06  4.18765096220E-06  4.25923301106E-06  4.33203865514E-06
  4.40608881010E-06  4.48140474911E-06  4.55800810899E-06  4.63592089639E-06
  4.71516549416E-06  4.79576466774E-06  4.87774157170E-06  4.96111975642E-06
  5.04592317485E-06  5.13217618937E-06  5.21990357879E-06  5.30913054550E-06
  5.39988272268E-06  5.49218618168E-06  5.58606743948E-06  5.68155346637E-06
  5.77867169362E-06  5.87745002143E-06  5.97791682690E-06  6.08010097220E-06
  6.18403181284E-06  6.28973920617E-06  6.39725351985E-06  6.50660564068E-06
  6.61782698340E-06  6.73094949975E-06  6.84600568764E-06  6.96302860050E-06
  7.08205185672E-06  7.20310964941E-06  7.32623675611E-06  7.45146854886E-06
  7.57884100433E-06  7.70839071417E-06  7.84015489549E-06  7.97417140160E-06
  8.11047873285E-06  8.24911604769E-06  8.39012317395E-06  8.53354062024E-06
  8.67940958762E-06  8.82777198142E-06  8.97867042328E-06  9.13214826341E-06
  9.28824959302E-06  9.44701925701E-06  9.60850286682E-06  9.77274681357E-06
  9.93979828137E-06  1.01097052609E-05  1.02825165631E-05  1.04582818333E-05
  1.06370515655E-05  1.08188771168E-05  1.10038107222E-05  1.11919055094E-05
  1.13832155145E-05  1.15777956971E-05  1.17757019565E-05  1.19769911471E-05
  1.21817210955E-05  1.23899506166E-05  1.26017395308E-05  1.28171486810E-05
  1.30362399499E-05  1.32590762783E-05  1.34857216827E-05  1.37162412740E-05
  1.39507012760E-05  1.41891690445E-05  1.44317130868E-05  1.46784030809E-05
  1.49293098962E-05  1.51845056133E-05  1.54440635451E-05  1.57080582574E-05
  1.59765655909E-05  1.62496626826E-05  1.65274279879E-05  1.68099413035E-05
  1.70972837899E-05  1.73895379951E-05  1.76867878780E-05  1.79891188329E-05
  1.82966177134E-05  1.86093728583E-05  1.89274741158E-05  1.92510128703E-05
  1.95800820684E-05  1.99147762451E-05  2.02551915517E-05  2.06014257828E-05
  2.09535784050E-05  2.13117505847E-05  2.16760452180E-05  2.20465669596E-05
  2.24234222533E-05  2.28067193623E-05  2.31965684004E-05  2.35930813638E-05
  2.39963721629E-05  2.44065566553E-05  2.48237526792E-05  2.52480800869E-05
  2.56796607794E-05  2.61186187416E-05  2.65650800775E-05  2.70191730468E-05
  2.74810281017E-05  2.79507779242E-05  2.84285574643E-05  2.89145039789E-05
  2.94087570710E-05  2.99114587298E-05  3.04227533720E-05  3.09427878825E-05
  3.14717116571E-05  3.20096766456E-05  3.25568373947E-05  3.31133510932E-05
  3.36793776167E-05  3.42550795736E-05  3.48406223521E-05  3.54361741672E-05
  3.60419061094E-05  3.66579921937E-05  3.72846094099E-05  3.79219377728E-05
  3.85701603747E-05  3.92294634373E-05  3.99000363655E-05  4.05820718022E-05
  4.12757656828E-05  4.19813172921E-05  4.26989293215E-05  4.34288079270E-05
  4.41711627887E-05  4.49262071707E-05  4.56941579827E-05  4.64752358420E-05
  4.72696651373E-05  4.80776740926E-05  4.88994948333E-05  4.97353634527E-05
  5.05855200796E-05  5.14502089475E-05  5.23296784649E-05  5.32241812862E-05
  5.41339743849E-05  5.50593191269E-05  5.60004813459E-05  5.69577314194E-05
  5.79313443471E-05  5.89215998289E-05  5.99287823462E-05  6.09531812430E-05
  6.19950908093E-05  6.30548103655E-05  6.41326443485E-05  6.52289023993E-05
  6.63438994514E-05  6.74779558221E-05  6.86313973037E-05  6.98045552577E-05
  7.09977667097E-05  7.22113744461E-05  7.34457271131E-05  7.47011793163E-05
  7.59780917227E-05  7.72768311646E-05  7.85977707448E-05  7.99412899436E-05
  8.13077747280E-05  8.26976176628E-05  8.41112180228E-05  8.55489819081E-05
  8.70113223605E-05  8.84986594821E-05  9.00114205560E-05  9.15500401693E-05
  9.31149603375E-05  9.47066306319E-05  9.63255083087E-05  9.79720584401E-05
  9.96467540480E-05  1.01350076240E-04  1.03082514348E-04  1.04844566067E-04
  1.06636737602E-04  1.08459543807E-04  1.10313508341E-04  1.12199163811E-04
  1.14117051930E-04  1.16067723669E-04  1.18051739420E-04  1.20069669150E-04
  1.22122092574E-04  1.24209599311E-04  1.26332789063E-04  1.28492271780E-04
  1.30688667840E-04  1.32922608226E-04  1.35194734705E-04  1.37505700016E-04
  1.39856168052E-04  1.42246814060E-04  1.44678324825E-04  1.47151398873E-04
  1.49666746670E-04  1.52225090827E-04  1.54827166308E-04  1.57473720637E-04
  1.60165514119E-04  1.62903320053E-04  1.65687924960E-04  1.68520128800E-04
  1.71400745213E-04  1.74330601744E-04  1.77310540082E-04  1.80341416308E-04
  1.83424101133E-04  1.86559480152E-04  1.89748454101E-04  1.92991939108E-04
  1.96290866965E-04  1.99646185390E-04  2.03058858300E-04  2.06529866091E-04
  2.10060205916E-04  2.13650891973E-04  2.17302955797E-04  2.21017446556E-04
  2.24795431350E-04  2.28637995521E-04  2.32546242964E-04  2.36521296443E-04
  2.40564297913E-04  2.44676408851E-04  2.48858810587E-04  2.53112704643E-04
  2.57439313081E-04  2.61839878853E-04  2.66315666154E-04  2.70867960794E-04
  2.75498070556E-04  2.80207325584E-04  2.84997078753E-04  2.89868706069E-04
  2.94823607054E-04  2.99863205157E-04  3.04988948156E-04  3.10202308578E-04
  3.15504784121E-04  3.20897898083E-04  3.26383199801E-04  3.31962265097E-04
  3.37636696727E-04  3.43408124848E-04  3.49278207477E-04  3.55248630976E-04
  3.61321110533E-04  3.67497390653E-04  3.73779245662E-04  3.80168480215E-04
  3.86666929816E-04  3.93276461344E-04  3.99998973588E-04  4.06836397798E-04
  4.13790698232E-04  4.20863872726E-04  4.28057953267E-04  4.35375006575E-04
  4.42817134697E-04  4.50386475613E-04  4.58085203848E-04  4.65915531098E-04
  4.73879706864E-04  4.81980019100E-04  4.90218794868E-04  4.98598401011E-04
  5.07121244825E-04  5.15789774760E-04  5.24606481117E-04  5.33573896763E-04
  5.42694597866E-04  5.51971204624E-04  5.61406382029E-04  5.71002840623E-04
  5.80763337284E-04  5.90690676014E-04  6.00787708744E-04  6.11057336158E-04
  6.21502508520E-04  6.32126226526E-04  6.42931542164E-04  6.53921559593E-04
  6.65099436033E-04  6.76468382670E-04  6.88031665583E-04  6.99792606680E-04
  7.11754584651E-04  7.23921035941E-04  7.36295455737E-04  7.48881398969E-04
  7.61682481335E-04  7.74702380339E-04  7.87944836346E-04  8.01413653657E-04
  8.15112701602E-04  8.29045915654E-04  8.43217298554E-04  8.57630921467E-04
  8.72290925149E-04  8.87201521133E-04  9.02366992946E-04  9.17791697335E-04
  9.33480065518E-04  9.49436604461E-04  9.65665898168E-04  9.82172609000E-04
  9.98961479018E-04  1.01603733134E-03  1.03340507152E-03  1.05106968898E-03
  1.06903625843E-03  1.08730994131E-03  1.10589598729E-03  1.12479973579E-03
  1.14402661749E-03  1.16358215589E-03  1.18347196894E-03  1.20370177058E-03
  1.22427737244E-03  1.24520468551E-03  1.26648972178E-03  1.28813859604E-03
  1.31015752760E-03  1.33255284206E-03  1.35533097317E-03  1.37849846463E-03
  1.40206197204E-03  1.42602826471E-03  1.45040422771E-03  1.47519686378E-03
  1.50041329536E-03  1.52606076665E-03  1.55214664566E-03  1.57867842637E-03
  1.60566373085E-03  1.63311031144E-03  1.66102605302E-03  1.68941897525E-03
  1.71829723486E-03  1.74766912801E-03  1.77754309268E-03  1.80792771109E-03
  1.83883171214E-03  1.87026397396E-03  1.90223352643E-03  1.93474955378E-03
  1.96782139724E-03  2.00145855771E-03  2.03567069849E-03  2.07046764807E-03
  2.10585940294E-03  2.14185613047E-03  2.17846817181E-03  2.21570604491E-03
  2.25358044748E-03  2.29210226010E-03  2.33128254935E-03  2.37113257096E-03
  2.41166377308E-03  2.45288779953E-03  2.49481649318E-03  2.53746189933E-03
  2.58083626918E-03  2.62495206335E-03  2.66982195546E-03  2.71545883574E-03
  2.76187581481E-03  2.80908622735E-03  2.85710363601E-03  2.90594183526E-03
  2.95561485536E-03  3.00613696641E-03  3.05752268245E-03  3.10978676559E-03
  3.16294423028E-03  3.21701034765E-03  3.27200064984E-03  3.32793093450E-03
  3.38481726932E-03  3.44267599664E-03  3.50152373816E-03  3.56137739969E-03
  3.62225417603E-03  3.68417155591E-03  3.74714732697E-03  3.81119958096E-03
  3.87634671883E-03  3.94260745611E-03  4.01000082822E-03  4.07854619596E-03
  4.14826325111E-03  4.21917202201E-03  4.29129287940E-03  4.36464654218E-03
  4.43925408346E-03  4.51513693653E-03  4.59231690108E-03  4.67081614940E-03
  4.75065723282E-03  4.83186308814E-03  4.91445704421E-03  4.99846282870E-03
  5.08390457484E-03  5.17080682838E-03  5.25919455466E-03  5.34909314577E-03
  5.44052842783E-03  5.53352666843E-03  5.62811458416E-03  5.72431934830E-03
  5.82216859862E-03  5.92169044532E-03  6.02291347909E-03  6.12586677936E-03
  6.23057992261E-03  6.33708299090E-03  6.44540658051E-03  6.55558181071E-03
  6.66764033270E-03  6.78161433874E-03  6.89753657135E-03  7.01544033274E-03
  7.13535949439E-03  7.25732850674E-03  7.38138240913E-03  7.50755683986E-03
  7.63588804639E-03  7.76641289579E-03  7.89916888534E-03  8.03419415324E-03
  8.17152748966E-03  8.31120834780E-03  8.45327685528E-03  8.59777382561E-03
  8.74474076999E-03  8.89421990917E-03  9.04625418563E-03  9.20088727585E-03
  9.35816360295E-03  9.51812834936E-03  9.68082746987E-03  9.84630770477E-03
  1.00146165933E-02  1.01858024875E-02  1.03599145656E-02  1.05370028466E-02
  1.07171182047E-02  1.09003123834E-02  1.10866380110E-02  1.12761486152E-02
  1.14688986386E-02  1.16649434547E-02  1.18643393833E-02  1.20671437070E-02
  1.22734146876E-02  1.24832115827E-02  1.26965946630E-02  1.29136252292E-02
  1.31343656301E-02  1.33588792800E-02  1.35872306775E-02  1.38194854234E-02
  1.40557102400E-02  1.42959729903E-02  1.45403426969E-02  1.47888895626E-02
  1.50416849901E-02  1.52988016026E-02  1.55603132648E-02  1.58262951039E-02
  1.60968235313E-02  1.63719762646E-02  1.66518323499E-02  1.69364721844E-02
  1.72259775396E-02  1.75204315848E-02  1.78199189110E-02  1.81245255551E-02
  1.84343390246E-02  1.87494483230E-02  1.90699439751E-02  1.93959180531E-02
  1.97274642030E-02  2.00646776717E-02  2.04076553339E-02  2.07564957206E-02
  2.11112990469E-02  2.14721672409E-02  2.18392039731E-02  2.22125146859E-02
  2.25922066244E-02  2.29783888666E-02  2.33711723554E-02  2.37706699296E-02
  2.41769963574E-02  2.45902683684E-02  2.50106046877E-02  2.54381260696E-02