<PP_INFO>
Generated using Vanderbilt code, version   7  3  6                              
Author: kfg        Generation date:    3    2 2014                              
Automatically converted from original format                                    
    1        The Pseudo was generated with a Scalar-Relativistic Calculation
  1.60000000000E+00    Local Potential cutoff radius
nl pn  l   occ               Rcut            Rcut US             E pseu
5S  5  0  2.00      0.00000000000      1.45000000000     -6.64018174000
5P  5  1  6.00      0.00000000000      1.50000000000     -3.82282482900
6S  6  0  2.00      0.00000000000      1.45000000000     -0.71248646500
5D  5  2  4.50      0.00000000000      1.60000000000     -0.72964178000
6P  6  1  0.00      0.00000000000      1.50000000000     -0.31049500300
</PP_INFO>


<PP_HEADER>
   0                   Version Number
  Re                   Element
   US                  Ultrasoft pseudopotential
    T                  Nonlinear Core Correction
SLA  PW   PSX  PSC     PBEsol  Exchange-Correlation functional
   15.00000000000      Z valence
 -189.18622532400      Total energy
    0.00000    0.00000 Suggested cutoff for wfc and rho
    3                  Max angular momentum component
  981                  Number of points in mesh
    5    8             Number of Wavefunctions, Number of Projectors
 Wavefunctions         nl  l   occ
                       5S  0  2.00
                       5P  1  6.00
                       6S  0  2.00
                       5D  2  4.50
                       6P  1  0.00
</PP_HEADER>


<PP_MESH>
  <PP_R>
  0.00000000000E+00  2.04338527818E-07  4.12111236446E-07  6.23375841860E-07
  8.38191030032E-07  1.05661647323E-06  1.27871284659E-06  1.50454184497E-06
  1.73416620012E-06  1.96764969804E-06  2.20505719677E-06  2.44645464436E-06
  2.69190909720E-06  2.94148873868E-06  3.19526289807E-06  3.45330206982E-06
  3.71567793315E-06  3.98246337192E-06  4.25373249492E-06  4.52956065642E-06
  4.81002447714E-06  5.09520186548E-06  5.38517203924E-06  5.68001554754E-06
  5.97981429325E-06  6.28465155572E-06  6.59461201395E-06  6.90978177004E-06
  7.23024837319E-06  7.55610084394E-06  7.88742969897E-06  8.22432697621E-06
  8.56688626040E-06  8.91520270909E-06  9.26937307910E-06  9.62949575336E-06
  9.99567076826E-06  1.03679998414E-05  1.07465864000E-05  1.11315356094E-05
  1.15229544024E-05  1.19209515089E-05  1.23256374863E-05  1.27371247500E-05
  1.31555276045E-05  1.35809622756E-05  1.40135469424E-05  1.44534017700E-05
  1.49006489432E-05  1.53554127001E-05  1.58178193670E-05  1.62879973931E-05
  1.67660773864E-05  1.72521921501E-05  1.77464767191E-05  1.82490683978E-05
  1.87601067984E-05  1.92797338791E-05  1.98080939843E-05  2.03453338839E-05
  2.08916028148E-05  2.14470525218E-05  2.20118373002E-05  2.25861140381E-05
  2.31700422605E-05  2.37637841736E-05  2.43675047095E-05  2.49813715722E-05
  2.56055552841E-05  2.62402292338E-05  2.68855697235E-05  2.75417560187E-05
  2.82089703976E-05  2.88873982018E-05  2.95772278878E-05  3.02786510794E-05
  3.09918626209E-05  3.17170606312E-05  3.24544465589E-05  3.32042252381E-05
  3.39666049455E-05  3.47417974581E-05  3.55300181122E-05  3.63314858631E-05
  3.71464233457E-05  3.79750569369E-05  3.88176168181E-05  3.96743370390E-05
  4.05454555829E-05  4.14312144329E-05  4.23318596388E-05  4.32476413856E-05
  4.41788140629E-05  4.51256363360E-05  4.60883712169E-05  4.70672861384E-05
  4.80626530274E-05  4.90747483813E-05  5.01038533440E-05  5.11502537848E-05
  5.22142403770E-05  5.32961086795E-05  5.43961592181E-05  5.55146975695E-05
  5.66520344459E-05  5.78084857817E-05  5.89843728207E-05  6.01800222058E-05
  6.13957660694E-05  6.26319421261E-05  6.38888937660E-05  6.51669701505E-05
  6.64665263089E-05  6.77879232375E-05  6.91315279995E-05  7.04977138270E-05
  7.18868602248E-05  7.32993530760E-05  7.47355847487E-05  7.61959542055E-05
  7.76808671137E-05  7.91907359590E-05  8.07259801588E-05  8.22870261800E-05
  8.38743076563E-05  8.54882655095E-05  8.71293480716E-05  8.87980112094E-05
  9.04947184513E-05  9.22199411156E-05  9.39741584420E-05  9.57578577244E-05
  9.75715344462E-05  9.94156924182E-05  1.01290843918E-04  1.03197509834E-04
  1.05136219807E-04  1.07107512381E-04  1.09111935149E-04  1.11150044908E-04
  1.13222407813E-04  1.15329599533E-04  1.17472205414E-04  1.19650820637E-04
  1.21866050388E-04  1.24118510021E-04  1.26408825236E-04  1.28737632244E-04
  1.31105577952E-04  1.33513320139E-04  1.35961527636E-04  1.38450880517E-04
  1.40982070285E-04  1.43555800065E-04  1.46172784797E-04  1.48833751440E-04
  1.51539439167E-04  1.54290599576E-04  1.57087996896E-04  1.59932408199E-04
  1.62824623618E-04  1.65765446566E-04  1.68755693955E-04  1.71796196430E-04
  1.74887798594E-04  1.78031359246E-04  1.81227751616E-04  1.84477863613E-04
  1.87782598066E-04  1.91142872977E-04  1.94559621779E-04  1.98033793591E-04
  2.01566353481E-04  2.05158282740E-04  2.08810579149E-04  2.12524257259E-04
  2.16300348669E-04  2.20139902319E-04  2.24043984777E-04  2.28013680534E-04
  2.32050092309E-04  2.36154341354E-04  2.40327567765E-04  2.44570930798E-04
  2.48885609191E-04  2.53272801496E-04  2.57733726403E-04  2.62269623089E-04
  2.66881751552E-04  2.71571392971E-04  2.76339850053E-04  2.81188447399E-04
  2.86118531875E-04  2.91131472979E-04  2.96228663227E-04  3.01411518539E-04
  3.06681478630E-04  3.12040007411E-04  3.17488593397E-04  3.23028750119E-04
  3.28662016546E-04  3.34389957509E-04  3.40214164141E-04  3.46136254313E-04
  3.52157873090E-04  3.58280693181E-04  3.64506415409E-04  3.70836769182E-04
  3.77273512973E-04  3.83818434805E-04  3.90473352757E-04  3.97240115458E-04
  4.04120602609E-04  4.11116725500E-04  4.18230427544E-04  4.25463684815E-04
  4.32818506597E-04  4.40296935944E-04  4.47901050245E-04  4.55632961804E-04
  4.63494818423E-04  4.71488804001E-04  4.79617139142E-04  4.87882081770E-04
  4.96285927753E-04  5.04831011549E-04  5.13519706846E-04  5.22354427227E-04
  5.31337626837E-04  5.40471801069E-04  5.49759487250E-04  5.59203265353E-04
  5.68805758712E-04  5.78569634746E-04  5.88497605707E-04  5.98592429428E-04
  6.08856910091E-04  6.19293899008E-04  6.29906295409E-04  6.40697047249E-04
  6.51669152031E-04  6.62825657630E-04  6.74169663149E-04  6.85704319772E-04
  6.97432831645E-04  7.09358456764E-04  7.21484507878E-04  7.33814353414E-04
  7.46351418407E-04  7.59099185457E-04  7.72061195692E-04  7.85241049753E-04
  7.98642408796E-04  8.12268995506E-04  8.26124595135E-04  8.40213056549E-04
  8.54538293300E-04  8.69104284712E-04  8.83915076989E-04  8.98974784334E-04
  9.14287590097E-04  9.29857747932E-04  9.45689582983E-04  9.61787493086E-04
  9.78155949984E-04  9.94799500576E-04  1.01172276818E-03  1.02893045381E-03
  1.04642733749E-03  1.06421827957E-03  1.08230822211E-03  1.10070219020E-03
  1.11940529339E-03  1.13842272712E-03  1.15775977412E-03  1.17742180592E-03
  1.19741428432E-03  1.21774276292E-03  1.23841288864E-03  1.25943040333E-03
  1.28080114532E-03  1.30253105105E-03  1.32462615676E-03  1.34709260012E-03
  1.36993662195E-03  1.39316456795E-03  1.41678289049E-03  1.44079815036E-03
  1.46521701862E-03  1.49004627845E-03  1.51529282703E-03  1.54096367744E-03
  1.56706596064E-03  1.59360692744E-03  1.62059395050E-03  1.64803452638E-03
  1.67593627765E-03  1.70430695496E-03  1.73315443926E-03  1.76248674390E-03
  1.79231201695E-03  1.82263854339E-03  1.85347474745E-03  1.88482919495E-03
  1.91671059565E-03  1.94912780570E-03  1.98208983009E-03  2.01560582516E-03
  2.04968510112E-03  2.08433712464E-03  2.11957152152E-03  2.15539807932E-03
  2.19182675008E-03  2.22886765312E-03  2.26653107781E-03  2.30482748647E-03
  2.34376751721E-03  2.38336198698E-03  2.42362189450E-03  2.46455842331E-03
  2.50618294496E-03  2.54850702207E-03  2.59154241160E-03  2.63530106811E-03
  2.67979514705E-03  2.72503700819E-03  2.77103921899E-03  2.81781455815E-03
  2.86537601911E-03  2.91373681369E-03  2.96291037577E-03  3.01291036498E-03
  3.06375067053E-03  3.11544541504E-03  3.16800895852E-03  3.22145590227E-03
  3.27580109301E-03  3.33105962699E-03  3.38724685415E-03  3.44437838240E-03
  3.50247008200E-03  3.56153808990E-03  3.62159881425E-03  3.68266893897E-03
  3.74476542839E-03  3.80790553193E-03  3.87210678891E-03  3.93738703342E-03
  4.00376439929E-03  4.07125732510E-03  4.13988455932E-03  4.20966516551E-03
  4.28061852763E-03  4.35276435539E-03  4.42612268977E-03  4.50071390855E-03
  4.57655873200E-03  4.65367822861E-03  4.73209382096E-03  4.81182729166E-03
  4.89290078941E-03  4.97533683515E-03  5.05915832832E-03  5.14438855319E-03
  5.23105118537E-03  5.31917029839E-03  5.40877037033E-03  5.49987629069E-03
  5.59251336724E-03  5.68670733311E-03  5.78248435389E-03  5.87987103492E-03
  5.97889442869E-03  6.07958204233E-03  6.18196184527E-03  6.28606227701E-03
  6.39191225499E-03  6.49954118268E-03  6.60897895768E-03  6.72025598008E-03
  6.83340316089E-03  6.94845193061E-03  7.06543424795E-03  7.18438260877E-03
  7.30533005505E-03  7.42831018406E-03  7.55335715775E-03  7.68050571220E-03
  7.80979116726E-03  7.94124943639E-03  8.07491703663E-03  8.21083109871E-03
  8.34902937743E-03  8.48955026208E-03  8.63243278715E-03  8.77771664313E-03
  8.92544218760E-03  9.07565045638E-03  9.22838317495E-03  9.38368277004E-03
  9.54159238144E-03  9.70215587394E-03  9.86541784955E-03  1.00314236599E-02
  1.02002194187E-02  1.03718520147E-02  1.05463691249E-02  1.07238192274E-02
  1.09042516148E-02  1.10877164086E-02  1.12742645723E-02  1.14639479261E-02
  1.16568191610E-02  1.18529318536E-02  1.20523404809E-02  1.22551004355E-02
  1.24612680409E-02  1.26709005671E-02  1.28840562469E-02  1.31007942914E-02
  1.33211749071E-02  1.35452593123E-02  1.37731097540E-02  1.40047895255E-02
  1.42403629838E-02  1.44798955674E-02  1.47234538148E-02  1.49711053826E-02
  1.52229190644E-02  1.54789648102E-02  1.57393137453E-02  1.60040381907E-02
  1.62732116826E-02  1.65469089931E-02  1.68252061510E-02  1.71081804630E-02
  1.73959105347E-02  1.76884762930E-02  1.79859590081E-02  1.82884413161E-02
  1.85960072416E-02  1.89087422217E-02  1.92267331292E-02  1.95500682969E-02
  1.98788375423E-02  2.02131321923E-02  2.05530451086E-02  2.08986707137E-02
  2.12501050168E-02  2.16074456410E-02  2.19707918498E-02  2.23402445750E-02
  2.27159064448E-02  2.30978818120E-02  2.34862767835E-02  2.38811992492E-02
  2.42827589123E-02  2.46910673198E-02  2.51062378933E-02  2.55283859606E-02
  2.59576287879E-02  2.63940856118E-02  2.68378776734E-02  2.72891282510E-02
  2.77479626948E-02  2.82145084620E-02  2.86888951514E-02  2.91712545402E-02
  2.96617206204E-02  3.01604296355E-02  3.06675201190E-02  3.11831329328E-02
  3.17074113059E-02  3.22405008745E-02  3.27825497226E-02  3.33337084226E-02
  3.38941300779E-02  3.44639703647E-02  3.50433875756E-02  3.56325426635E-02
  3.62315992866E-02  3.68407238531E-02  3.74600855684E-02  3.80898564813E-02
  3.87302115322E-02  3.93813286017E-02  4.00433885597E-02  4.07165753162E-02
  4.14010758717E-02  4.20970803697E-02  4.28047821492E-02  4.35243777986E-02
  4.42560672103E-02  4.50000536359E-02  4.57565437433E-02  4.65257476733E-02
  4.73078790987E-02  4.81031552832E-02  4.89117971420E-02  4.97340293031E-02
  5.05700801696E-02  5.14201819831E-02  5.22845708885E-02  5.31634869995E-02
  5.40571744651E-02  5.49658815374E-02  5.58898606410E-02  5.68293684427E-02
  5.77846659229E-02  5.87560184482E-02  5.97436958450E-02  6.07479724744E-02
  6.17691273086E-02  6.28074440083E-02  6.38632110016E-02  6.49367215637E-02
  6.60282738991E-02  6.71381712236E-02  6.82667218492E-02  6.94142392695E-02
  7.05810422467E-02  7.17674549003E-02  7.29738067968E-02  7.42004330419E-02
  7.54476743730E-02  7.67158772539E-02  7.80053939714E-02  7.93165827329E-02
  8.06498077660E-02  8.20054394194E-02  8.33838542663E-02  8.47854352085E-02
  8.62105715831E-02  8.76596592704E-02  8.91331008042E-02  9.06313054832E-02
  9.21546894850E-02  9.37036759816E-02  9.52786952571E-02  9.68801848269E-02
  9.85085895595E-02  1.00164361800E-01  1.01847961496E-01  1.03559856325E-01
  1.05300521823E-01  1.07070441521E-01  1.08870107075E-01  1.10700018402E-01
  1.12560683823E-01  1.14452620203E-01  1.16376353090E-01  1.18332416868E-01
  1.20321354900E-01  1.22343719681E-01  1.24400072993E-01  1.26490986059E-01
  1.28617039700E-01  1.30778824501E-01  1.32976940971E-01  1.35211999714E-01
  1.37484621591E-01  1.39795437903E-01  1.42145090558E-01  1.44534232251E-01
  1.46963526649E-01  1.49433648571E-01  1.51945284178E-01  1.54499131163E-01
  1.57095898945E-01  1.59736308863E-01  1.62421094383E-01  1.65151001296E-01
  1.67926787926E-01  1.70749225343E-01  1.73619097575E-01  1.76537201829E-01
  1.79504348707E-01  1.82521362436E-01  1.85589081094E-01  1.88708356845E-01
  1.91880056176E-01  1.95105060133E-01  1.98384264572E-01  2.01718580404E-01
  2.05108933850E-01  2.08556266696E-01  2.12061536557E-01  2.15625717141E-01
  2.19249798522E-01  2.22934787411E-01  2.26681707442E-01  2.30491599448E-01
  2.34365521758E-01  2.38304550486E-01  2.42309779833E-01  2.46382322387E-01
  2.50523309437E-01  2.54733891284E-01  2.59015237560E-01  2.63368537556E-01
  2.67795000550E-01  2.72295856143E-01  2.76872354603E-01  2.81525767208E-01
  2.86257386602E-01  2.91068527155E-01  2.95960525326E-01  3.00934740035E-01
  3.05992553039E-01  3.11135369320E-01  3.16364617470E-01  3.21681750092E-01
  3.27088244202E-01  3.32585601638E-01  3.38175349479E-01  3.43859040470E-01
  3.49638253449E-01  3.55514593790E-01  3.61489693849E-01  3.67565213414E-01
  3.73742840167E-01  3.80024290157E-01  3.86411308271E-01  3.92905668721E-01
  3.99509175539E-01  4.06223663074E-01  4.13050996505E-01  4.19993072357E-01
  4.27051819030E-01  4.34229197331E-01  4.41527201023E-01  4.48947857376E-01
  4.56493227732E-01  4.64165408075E-01  4.71966529616E-01  4.79898759382E-01
  4.87964300823E-01  4.96165394418E-01  5.04504318301E-01  5.12983388894E-01
  5.21604961549E-01  5.30371431203E-01  5.39285233041E-01  5.48348843179E-01
  5.57564779343E-01  5.66935601575E-01  5.76463912941E-01  5.86152360256E-01
  5.96003634818E-01  6.06020473154E-01  6.16205657786E-01  6.26562017995E-01
  6.37092430615E-01  6.47799820829E-01  6.58687162981E-01  6.69757481402E-01
  6.81013851251E-01  6.92459399372E-01  7.04097305155E-01  7.15930801428E-01
  7.27963175349E-01  7.40197769322E-01  7.52637981922E-01  7.65287268846E-01
  7.78149143866E-01  7.91227179806E-01  8.04525009539E-01  8.18046326991E-01
  8.31794888173E-01  8.45774512215E-01  8.59989082439E-01  8.74442547425E-01
  8.89138922119E-01  9.04082288942E-01  9.19276798925E-01  9.34726672863E-01
  9.50436202486E-01  9.66409751655E-01  9.82651757568E-01  9.99166731999E-01
  1.01595926255E+00  1.03303401391E+00  1.05039572919E+00  1.06804923119E+00
  1.08599942377E+00  1.10425129323E+00  1.12280990963E+00  1.14168042827E+00
  1.16086809108E+00  1.18037822809E+00  1.20021625891E+00  1.22038769423E+00
  1.24089813736E+00  1.26175328577E+00  1.28295893270E+00  1.30452096873E+00
  1.32644538347E+00  1.34873826716E+00  1.37140581242E+00  1.39445431594E+00
  1.41789018022E+00  1.44171991537E+00  1.46595014094E+00  1.49058758767E+00
  1.51563909948E+00  1.54111163527E+00  1.56701227091E+00  1.59334820120E+00
  1.62012674182E+00  1.64735533145E+00  1.67504153376E+00  1.70319303952E+00
  1.73181766879E+00  1.76092337304E+00  1.79051823737E+00  1.82061048277E+00
  1.85120846839E+00  1.88232069386E+00  1.91395580167E+00  1.94612257956E+00
  1.97882996294E+00  2.01208703742E+00  2.04590304127E+00  2.08028736806E+00
  2.11524956920E+00  2.15079935665E+00  2.18694660557E+00  2.22370135710E+00
  2.26107382113E+00  2.29907437913E+00  2.33771358707E+00  2.37700217830E+00
  2.41695106658E+00  2.45757134907E+00  2.49887430945E+00  2.54087142102E+00
  2.58357434993E+00  2.62699495837E+00  2.67114530790E+00  2.71603766280E+00
  2.76168449344E+00  2.80809847980E+00  2.85529251494E+00  2.90327970864E+00
  2.95207339096E+00  3.00168711603E+00  3.05213466576E+00  3.10343005368E+00
  3.15558752883E+00  3.20862157974E+00  3.26254693843E+00  3.31737858452E+00
  3.37313174936E+00  3.42982192032E+00  3.48746484501E+00  3.54607653575E+00
  3.60567327392E+00  3.66627161457E+00  3.72788839095E+00  3.79054071923E+00
  3.85424600323E+00  3.91902193929E+00  3.98488652113E+00  4.05185804490E+00
  4.11995511422E+00  4.18919664538E+00  4.25960187260E+00  4.33119035332E+00
  4.40398197370E+00  4.47799695411E+00  4.55325585472E+00  4.62977958129E+00
  4.70758939089E+00  4.78670689785E+00  4.86715407978E+00  4.94895328362E+00
  5.03212723191E+00  5.11669902906E+00  5.20269216776E+00  5.29013053557E+00
  5.37903842148E+00  5.46944052269E+00  5.56136195148E+00  5.65482824217E+00
  5.74986535822E+00  5.84649969945E+00  5.94475810934E+00  6.04466788253E+00
  6.14625677238E+00  6.24955299867E+00  6.35458525547E+00  6.46138271908E+00
  6.56997505615E+00  6.68039243191E+00  6.79266551857E+00  6.90682550382E+00
  7.02290409949E+00  7.14093355040E+00  7.26094664325E+00  7.38297671579E+00
  7.50705766605E+00  7.63322396176E+00  7.76151064991E+00  7.89195336653E+00
  8.02458834653E+00  8.15945243384E+00  8.29658309155E+00  8.43601841240E+00
  8.57779712933E+00  8.72195862621E+00  8.86854294883E+00  9.01759081601E+00
  9.16914363089E+00  9.32324349245E+00  9.47993320720E+00  9.63925630105E+00
  9.80125703147E+00  9.96598039968E+00  1.01334721632E+01  1.03037788487E+01
  1.04769477646E+01  1.06530270145E+01  1.08320655105E+01  1.10141129865E+01
  1.11992200126E+01  1.13874380086E+01  1.15788192584E+01  1.17734169246E+01
  1.19712850636E+01  1.21724786398E+01  1.23770535418E+01  1.25850665972E+01
  1.27965755887E+01  1.30116392702E+01  1.32303173830E+01  1.34526706724E+01
  1.36787609046E+01  1.39086508840E+01  1.41424044703E+01  1.43800865966E+01
  1.46217632873E+01  1.48675016763E+01  1.51173700258E+01  1.53714377454E+01
  1.56297754110E+01  1.58924547847E+01  1.61595488348E+01  1.64311317558E+01
  1.67072789890E+01  1.69880672439E+01  1.72735745189E+01  1.75638801236E+01
  1.78590647002E+01  1.81592102462E+01  1.84644001375E+01  1.87747191510E+01
  1.90902534883E+01  1.94110907999E+01  1.97373202094E+01  2.00690323381E+01
  2.04063193304E+01  2.07492748794E+01  2.10979942526E+01  2.14525743189E+01
  2.18131135749E+01  2.21797121727E+01  2.25524719477E+01  2.29314964466E+01
  2.33168909565E+01  2.37087625338E+01  2.41072200343E+01  2.45123741433E+01
  2.49243374060E+01  2.53432242594E+01  2.57691510637E+01  2.62022361346E+01
  2.66425997763E+01  2.70903643148E+01  2.75456541321E+01  2.80085957005E+01
  2.84793176178E+01  2.89579506432E+01  2.94446277334E+01  2.99394840795E+01
  3.04426571449E+01  3.09542867031E+01  3.14745148766E+01  3.20034861767E+01
  3.25413475432E+01  3.30882483856E+01  3.36443406242E+01  3.42097787327E+01
  3.47847197809E+01  3.53693234782E+01  3.59637522185E+01  3.65681711245E+01
  3.71827480944E+01  3.78076538479E+01  3.84430619739E+01  3.90891489789E+01
  3.97460943355E+01  4.04140805328E+01  4.10932931268E+01  4.17839207921E+01
  4.24861553741E+01  4.32001919425E+01  4.39262288454E+01  4.46644677643E+01
  4.54151137704E+01  4.61783753813E+01  4.69544646190E+01  4.77435970688E+01
  4.85459919393E+01  4.93618721231E+01  5.01914642589E+01  5.10349987941E+01
  5.18927100494E+01  5.27648362835E+01  5.36516197592E+01  5.45533068110E+01
  5.54701479132E+01  5.64023977500E+01  5.73503152855E+01  5.83141638363E+01
  5.92942111442E+01  6.02907294511E+01  6.13039955738E+01  6.23342909817E+01
  6.33819018747E+01  6.44471192625E+01  6.55302390456E+01  6.66315620976E+01
  6.77513943487E+01  6.88900468706E+01  7.00478359630E+01  7.12250832413E+01
  7.24221157264E+01  7.36392659349E+01  7.48768719720E+01  7.61352776250E+01
  7.74148324591E+01  7.87158919146E+01  8.00388174051E+01  8.13839764184E+01
  8.27517426186E+01  8.41424959494E+01  8.55566227402E+01  8.69945158131E+01
  8.84565745919E+01  8.99432052137E+01  9.14548206409E+01  9.29918407763E+01
  9.45546925800E+01  9.61438101874E+01  9.77596350303E+01  9.94026159594E+01
  1.01073209369E+02  1.02771879323E+02  1.04499097686E+02  1.06255344251E+02
  1.08041106876E+02  1.09856881618E+02  1.11703172870E+02  1.13580493502E+02
  1.15489365006E+02  1.17430317635E+02  1.19403890555E+02  1.21410631993E+02
  1.23451099391E+02  1.25525859558E+02  1.27635488830E+02  1.29780573229E+02
  1.31961708625E+02  1.34179500903E+02  1.36434566130E+02  1.38727530729E+02
  1.41059031648E+02  1.43429716543E+02  1.45840243950E+02  1.48291283478E+02
  1.50783515986E+02
  </PP_R>
  <PP_RAB>
  2.02640436790E-07  2.06046078920E-07  2.09508957397E-07  2.13030034154E-07
  2.16610287290E-07  2.20250711344E-07  2.23952317566E-07  2.27716134206E-07
  2.31543206792E-07  2.35434598424E-07  2.39391390069E-07  2.43414680863E-07
  2.47505588410E-07  2.51665249101E-07  2.55894818424E-07  2.60195471287E-07
  2.64568402342E-07  2.69014826322E-07  2.73535978372E-07  2.78133114397E-07
  2.82807511409E-07  2.87560467881E-07  2.92393304111E-07  2.97307362582E-07
  3.02304008344E-07  3.07384629385E-07  3.12550637022E-07  3.17803466291E-07
  3.23144576343E-07  3.28575450856E-07  3.34097598439E-07  3.39712553060E-07
  3.45421874463E-07  3.51227148608E-07  3.57129988108E-07  3.63132032679E-07
  3.69234949594E-07  3.75440434147E-07  3.81750210124E-07  3.88166030280E-07
  3.94689676830E-07  4.01322961939E-07  4.08067728229E-07  4.14925849289E-07
  4.21899230198E-07  4.28989808051E-07  4.36199552497E-07  4.43530466291E-07
  4.50984585843E-07  4.58563981792E-07  4.66270759574E-07  4.74107060008E-07
  4.82075059897E-07  4.90176972625E-07  4.98415048775E-07  5.06791576754E-07
  5.15308883430E-07  5.23969334776E-07  5.32775336528E-07  5.41729334855E-07
  5.50833817037E-07  5.60091312154E-07  5.69504391793E-07  5.79075670757E-07
  5.88807807799E-07  5.98703506351E-07  6.08765515282E-07  6.18996629659E-07
  6.29399691525E-07  6.39977590686E-07  6.50733265515E-07  6.61669703769E-07
  6.72789943417E-07  6.84097073486E-07  6.95594234920E-07  7.07284621447E-07
  7.19171480472E-07  7.31258113977E-07  7.43547879438E-07  7.56044190758E-07
  7.68750519214E-07  7.81670394425E-07  7.94807405327E-07  8.08165201174E-07
  8.21747492552E-07  8.35558052406E-07  8.49600717091E-07  8.63879387439E-07
  8.78398029838E-07  8.93160677338E-07  9.08171430770E-07  9.23434459883E-07
  9.38954004506E-07  9.54734375723E-07  9.70779957072E-07  9.87095205763E-07
  1.00368465391E-06  1.02055290981E-06  1.03770465919E-06  1.05514466654E-06
  1.07287777641E-06  1.09090891478E-06  1.10924309042E-06  1.12788539628E-06
  1.14684101089E-06  1.16611519982E-06  1.18571331713E-06  1.20564080689E-06
  1.22590320461E-06  1.24650613889E-06  1.26745533289E-06  1.28875660596E-06
  1.31041587527E-06  1.33243915742E-06  1.35483257011E-06  1.37760233391E-06
  1.40075477387E-06  1.42429632139E-06  1.44823351594E-06  1.47257300688E-06
  1.49732155535E-06  1.52248603611E-06  1.54807343944E-06  1.57409087312E-06
  1.60054556439E-06  1.62744486195E-06  1.65479623798E-06  1.68260729028E-06
  1.71088574431E-06  1.73963945538E-06  1.76887641082E-06  1.79860473220E-06
  1.82883267756E-06  1.85956864376E-06  1.89082116876E-06  1.92259893403E-06
  1.95491076691E-06  1.98776564314E-06  2.02117268927E-06  2.05514118525E-06
  2.08968056700E-06  2.12480042901E-06  2.16051052702E-06  2.19682078074E-06
  2.23374127659E-06  2.27128227048E-06  2.30945419072E-06  2.34826764086E-06
  2.38773340266E-06  2.42786243910E-06  2.46866589739E-06  2.51015511207E-06
  2.55234160821E-06  2.59523710453E-06  2.63885351674E-06  2.68320296079E-06
  2.72829775624E-06  2.77415042972E-06  2.82077371838E-06  2.86818057344E-06
  2.91638416376E-06  2.96539787955E-06  3.01523533604E-06  3.06591037729E-06
  3.11743708003E-06  3.16982975756E-06  3.22310296373E-06  3.27727149701E-06
  3.33235040455E-06  3.38835498641E-06  3.44530079978E-06  3.50320366330E-06
  3.56207966148E-06  3.62194514913E-06  3.68281675595E-06  3.74471139110E-06
  3.80764624794E-06  3.87163880878E-06  3.93670684973E-06  4.00286844568E-06
  4.07014197527E-06  4.13854612603E-06  4.20809989954E-06  4.27882261675E-06
  4.35073392331E-06  4.42385379505E-06  4.49820254351E-06  4.57380082160E-06
  4.65066962933E-06  4.72883031964E-06  4.80830460433E-06  4.88911456011E-06
  4.97128263470E-06  5.05483165311E-06  5.13978482391E-06  5.22616574578E-06
  5.31399841396E-06  5.40330722697E-06  5.49411699341E-06  5.58645293878E-06
  5.68034071256E-06  5.77580639528E-06  5.87287650581E-06  5.97157800868E-06
  6.07193832162E-06  6.17398532314E-06  6.27774736028E-06  6.38325325650E-06
  6.49053231967E-06  6.59961435021E-06  6.71052964940E-06  6.82330902776E-06
  6.93798381361E-06  7.05458586179E-06  7.17314756252E-06  7.29370185037E-06
  7.41628221341E-06  7.54092270252E-06  7.66765794088E-06  7.79652313352E-06
  7.92755407717E-06  8.06078717014E-06  8.19625942250E-06  8.33400846628E-06
  8.47407256601E-06  8.61649062927E-06  8.76130221756E-06  8.90854755724E-06
  9.05826755075E-06  9.21050378793E-06  9.36529855762E-06  9.52269485934E-06
  9.68273641532E-06  9.84546768255E-06  1.00109338652E-05  1.01791809272E-05
  1.03502556050E-05  1.05242054203E-05  1.07010786936E-05  1.08809245576E-05
  1.10637929706E-05  1.12497347306E-05  1.14388014893E-05  1.16310457663E-05
  1.18265209642E-05  1.20252813828E-05  1.22273822348E-05  1.24328796604E-05
  1.26418307436E-05  1.28542935277E-05  1.30703270317E-05  1.32899912660E-05
  1.35133472500E-05  1.37404570286E-05  1.39713836890E-05  1.42061913793E-05
  1.44449453251E-05  1.46877118487E-05  1.49345583866E-05  1.51855535090E-05
  1.54407669384E-05  1.57002695690E-05  1.59641334865E-05  1.62324319882E-05
  1.65052396032E-05  1.67826321131E-05  1.70646865731E-05  1.73514813336E-05
  1.76430960616E-05  1.79396117630E-05  1.82411108053E-05  1.85476769401E-05
  1.88593953267E-05  1.91763525554E-05  1.94986366721E-05  1.98263372021E-05
  2.01595451754E-05  2.04983531521E-05  2.08428552475E-05  2.11931471590E-05
  2.15493261921E-05  2.19114912877E-05  2.22797430495E-05  2.26541837721E-05
  2.30349174692E-05  2.34220499026E-05  2.38156886116E-05  2.42159429428E-05
  2.46229240805E-05  2.50367450777E-05  2.54575208873E-05  2.58853683941E-05
  2.63204064475E-05  2.67627558942E-05  2.72125396118E-05  2.76698825431E-05
  2.81349117309E-05  2.86077563528E-05  2.90885477577E-05  2.95774195018E-05
  3.00745073859E-05  3.05799494932E-05  3.10938862276E-05  3.16164603526E-05
  3.21478170309E-05  3.26881038651E-05  3.32374709384E-05  3.37960708562E-05
  3.43640587887E-05  3.49415925141E-05  3.55288324622E-05  3.61259417588E-05
  3.67330862715E-05  3.73504346554E-05  3.79781584003E-05  3.86164318779E-05
  3.92654323904E-05  3.99253402199E-05  4.05963386784E-05  4.12786141587E-05
  4.19723561861E-05  4.26777574713E-05  4.33950139635E-05  4.41243249053E-05
  4.48658928877E-05  4.56199239066E-05  4.63866274200E-05  4.71662164059E-05
  4.79589074219E-05  4.87649206650E-05  4.95844800330E-05  5.04178131864E-05
  5.12651516122E-05  5.21267306875E-05  5.30027897454E-05  5.38935721413E-05
  5.47993253204E-05  5.57203008866E-05  5.66567546726E-05  5.76089468102E-05
  5.85771418035E-05  5.95616086017E-05  6.05626206742E-05  6.15804560863E-05
  6.26153975767E-05  6.36677326356E-05  6.47377535852E-05  6.58257576604E-05
  6.69320470916E-05  6.80569291885E-05  6.92007164255E-05  7.03637265287E-05
  7.15462825639E-05  7.27487130266E-05  7.39713519329E-05  7.52145389126E-05
  7.64786193034E-05  7.77639442469E-05  7.90708707861E-05  8.03997619644E-05
  8.17509869270E-05  8.31249210227E-05  8.45219459087E-05  8.59424496566E-05
  8.73868268597E-05  8.88554787433E-05  9.03488132757E-05  9.18672452816E-05
  9.34111965575E-05  9.49810959886E-05  9.65773796682E-05  9.82004910188E-05
  9.98508809149E-05  1.01529007809E-04  1.03235337858E-04  1.04970345054E-04
  1.06734511353E-04  1.08528326815E-04  1.10352289731E-04  1.12206906772E-04
  1.14092693118E-04  1.16010172614E-04  1.17959877903E-04  1.19942350583E-04
  1.21958141354E-04  1.24007810171E-04  1.26091926399E-04  1.28211068973E-04
  1.30365826558E-04  1.32556797710E-04  1.34784591047E-04  1.37049825415E-04
  1.39353130061E-04  1.41695144805E-04  1.44076520223E-04  1.46497917822E-04
  1.48960010230E-04  1.51463481376E-04  1.54009026686E-04  1.56597353271E-04
  1.59229180128E-04  1.61905238336E-04  1.64626271263E-04  1.67393034768E-04
  1.70206297414E-04  1.73066840683E-04  1.75975459186E-04  1.78932960893E-04
  1.81940167351E-04  1.84997913914E-04  1.88107049976E-04  1.91268439206E-04
  1.94482959787E-04  1.97751504664E-04  2.01074981786E-04  2.04454314362E-04
  2.07890441118E-04  2.11384316556E-04  2.14936911218E-04  2.18549211960E-04
  2.22222222222E-04  2.25956962308E-04  2.29754469670E-04  2.33615799195E-04
  2.37542023499E-04  2.41534233227E-04  2.45593537350E-04  2.49721063480E-04
  2.53917958177E-04  2.58185387273E-04  2.62524536192E-04  2.66936610282E-04
  2.71422835147E-04  2.75984456989E-04  2.80622742954E-04  2.85338981486E-04
  2.90134482681E-04  2.95010578653E-04  2.99968623906E-04  3.05009995705E-04
  3.10136094464E-04  3.15348344132E-04  3.20648192590E-04  3.26037112053E-04
  3.31516599476E-04  3.37088176975E-04  3.42753392247E-04  3.48513818998E-04
  3.54371057384E-04  3.60326734454E-04  3.66382504600E-04  3.72540050020E-04
  3.78801081183E-04  3.85167337304E-04  3.91640586829E-04  3.98222627924E-04
  4.04915288976E-04  4.11720429101E-04  4.18639938659E-04  4.25675739781E-04
  4.32829786901E-04  4.40104067301E-04  4.47500601660E-04  4.55021444620E-04
  4.62668685351E-04  4.70444448136E-04  4.78350892960E-04  4.86390216108E-04
  4.94564650776E-04  5.02876467694E-04  5.11327975754E-04  5.19921522650E-04
  5.28659495535E-04  5.37544321679E-04  5.46578469146E-04  5.55764447480E-04
  5.65104808402E-04  5.74602146515E-04  5.84259100030E-04  5.94078351496E-04
  6.04062628546E-04  6.14214704656E-04  6.24537399910E-04  6.35033581792E-04
  6.45706165974E-04  6.56558117132E-04  6.67592449766E-04  6.78812229040E-04
  6.90220571631E-04  7.01820646598E-04  7.13615676256E-04  7.25608937080E-04