<PP_INFO>
Generated using Vanderbilt code, version   7  3  6                              
Author: kfg        Generation date:   22    9   15                              
Automatically converted from original format                                    
    1        The Pseudo was generated with a Scalar-Relativistic Calculation
  2.10000000000E+00    Local Potential cutoff radius
nl pn  l   occ               Rcut            Rcut US             E pseu
4P  4  1  6.00      0.00000000000      1.55000000000     -4.10552230800
5S  5  0  1.00      0.00000000000      2.50000000000     -0.59118483200
4D  4  2  7.50      0.00000000000      1.60000000000     -0.81209427500
5P  5  1  0.00      0.00000000000      1.55000000000     -0.27006523700
</PP_INFO>


<PP_HEADER>
   0                   Version Number
  Rh                   Element
   US                  Ultrasoft pseudopotential
    T                  Nonlinear Core Correction
SLA  PW   PSX  PSC     PBEsol  Exchange-Correlation functional
   15.00000000000      Z valence
 -170.25280409000      Total energy
    0.00000    0.00000 Suggested cutoff for wfc and rho
    2                  Max angular momentum component
  969                  Number of points in mesh
    4    7             Number of Wavefunctions, Number of Projectors
 Wavefunctions         nl  l   occ
                       4P  1  6.00
                       5S  0  1.00
                       4D  2  7.50
                       5P  1  0.00
</PP_HEADER>


<PP_MESH>
  <PP_R>
  0.00000000000E+00  3.40564213031E-07  6.86852060743E-07  1.03895973643E-06
  1.39698505005E-06  1.76102745538E-06  2.13118807764E-06  2.50756974162E-06
  2.89027700020E-06  3.27941616340E-06  3.67509532795E-06  4.07742440726E-06
  4.48651516201E-06  4.90248123113E-06  5.32543816345E-06  5.75550344970E-06
  6.19279655525E-06  6.63743895320E-06  7.08955415820E-06  7.54926776070E-06
  8.01670746190E-06  8.49200310914E-06  8.97528673206E-06  9.46669257923E-06
  9.96635715541E-06  1.04744192595E-05  1.09910200233E-05  1.15163029501E-05
  1.20504139553E-05  1.25935014066E-05  1.31457161650E-05  1.37072116270E-05
  1.42781437673E-05  1.48586711818E-05  1.54489551318E-05  1.60491595889E-05
  1.66594512804E-05  1.72799997357E-05  1.79109773334E-05  1.85525593490E-05
  1.92049240040E-05  1.98682525149E-05  2.05427291439E-05  2.12285412499E-05
  2.19258793408E-05  2.26349371261E-05  2.33559115707E-05  2.40890029501E-05
  2.48344149054E-05  2.55923545002E-05  2.63630322784E-05  2.71466623218E-05
  2.79434623107E-05  2.87536535835E-05  2.95774611985E-05  3.04151139964E-05
  3.12668446640E-05  3.21328897986E-05  3.30134899738E-05  3.39088898066E-05
  3.48193380247E-05  3.57450875364E-05  3.66863955003E-05  3.76435233968E-05
  3.86167371009E-05  3.96063069561E-05  4.06125078492E-05  4.16356192870E-05
  4.26759254736E-05  4.37337153896E-05  4.48092828725E-05  4.59029266979E-05
  4.70149506627E-05  4.81456636697E-05  4.92953798130E-05  5.04644184657E-05
  5.16531043682E-05  5.28617677187E-05  5.40907442648E-05  5.53403753968E-05
  5.66110082424E-05  5.79029957635E-05  5.92166968537E-05  6.05524764384E-05
  6.19107055762E-05  6.32917615616E-05  6.46960280301E-05  6.61238950649E-05
  6.75757593048E-05  6.90520240549E-05  7.05530993980E-05  7.20794023093E-05
  7.36313567716E-05  7.52093938933E-05  7.68139520282E-05  7.84454768973E-05
  8.01044217124E-05  8.17912473021E-05  8.35064222400E-05  8.52504229746E-05
  8.70237339617E-05  8.88268477991E-05  9.06602653635E-05  9.25244959491E-05
  9.44200574099E-05  9.63474763028E-05  9.83072880345E-05  1.00300037010E-04
  1.02326276782E-04  1.04386570210E-04  1.06481489610E-04  1.08611616918E-04
  1.10777543848E-04  1.12979872063E-04  1.15219213332E-04  1.17496189712E-04
  1.19811433708E-04  1.22165588460E-04  1.24559307915E-04  1.26993257009E-04
  1.29468111856E-04  1.31984559932E-04  1.34543300265E-04  1.37145043633E-04
  1.39790512760E-04  1.42480442516E-04  1.45215580119E-04  1.47996685349E-04
  1.50824530752E-04  1.53699901859E-04  1.56623597403E-04  1.59596429541E-04
  1.62619224077E-04  1.65692820697E-04  1.68818073197E-04  1.71995849724E-04
  1.75227033012E-04  1.78512520635E-04  1.81853225248E-04  1.85250074846E-04
  1.88704013021E-04  1.92215999222E-04  1.95787009023E-04  1.99418034395E-04
  2.03110083980E-04  2.06864183369E-04  2.10681375393E-04  2.14562720407E-04
  2.18509296587E-04  2.22522200231E-04  2.26602546060E-04  2.30751467528E-04
  2.34970117142E-04  2.39259666774E-04  2.43621307995E-04  2.48056252400E-04
  2.52565731945E-04  2.57150999293E-04  2.61813328159E-04  2.66554013665E-04
  2.71374372697E-04  2.76275744276E-04  2.81259489925E-04  2.86326994050E-04
  2.91479664324E-04  2.96718932077E-04  3.02046252694E-04  3.07463106022E-04
  3.12970996776E-04  3.18571454962E-04  3.24266036299E-04  3.30056322651E-04
  3.35943922469E-04  3.41930471234E-04  3.48017631916E-04  3.54207095431E-04
  3.60500581115E-04  3.66899837199E-04  3.73406641294E-04  3.80022800889E-04
  3.86750153848E-04  3.93590568924E-04  4.00545946275E-04  4.07618217996E-04
  4.14809348652E-04  4.22121335826E-04  4.29556210672E-04  4.37116038481E-04
  4.44802919254E-04  4.52618988285E-04  4.60566416754E-04  4.68647412332E-04
  4.76864219791E-04  4.85219121632E-04  4.93714438712E-04  5.02352530899E-04
  5.11135797717E-04  5.20066679018E-04  5.29147655662E-04  5.38381250199E-04
  5.47770027577E-04  5.57316595849E-04  5.67023606902E-04  5.76893757189E-04
  5.86929788483E-04  5.97134488635E-04  6.07510692349E-04  6.18061281971E-04
  6.28789188288E-04  6.39697391342E-04  6.50788921261E-04  6.62066859097E-04
  6.73534337682E-04  6.85194542500E-04  6.97050712573E-04  7.09106141358E-04
  7.21364177662E-04  7.33828226573E-04  7.46501750409E-04  7.59388269673E-04
  7.72491364038E-04  7.85814673335E-04  7.99361898571E-04  8.13136802949E-04
  8.27143212922E-04  8.41385019248E-04  8.55866178077E-04  8.70590712045E-04
  8.85562711396E-04  9.00786335114E-04  9.16265812083E-04  9.32005442255E-04
  9.48009597853E-04  9.64282724576E-04  9.80829342845E-04  9.97654049046E-04
  1.01476151682E-03  1.03215649835E-03  1.04984382568E-03  1.06782841208E-03
  1.08611525338E-03  1.10470942938E-03  1.12361610525E-03  1.14284053295E-03
  1.16238805274E-03  1.18226409461E-03  1.20247417980E-03  1.22302392236E-03
  1.24391903068E-03  1.26516530910E-03  1.28676865949E-03  1.30873508292E-03
  1.33107068133E-03  1.35378165918E-03  1.37687432522E-03  1.40035509425E-03
  1.42423048883E-03  1.44850714119E-03  1.47319179498E-03  1.49829130722E-03
  1.52381265016E-03  1.54976291322E-03  1.57614930497E-03  1.60297915514E-03
  1.63025991664E-03  1.65799916763E-03  1.68620461363E-03  1.71488408968E-03
  1.74404556248E-03  1.77369713262E-03  1.80384703685E-03  1.83450365033E-03
  1.86567548899E-03  1.89737121186E-03  1.92959962353E-03  1.96236967653E-03
  1.99569047386E-03  2.02957127153E-03  2.06402148107E-03  2.09905067222E-03
  2.13466857553E-03  2.17088508509E-03  2.20771026127E-03  2.24515433353E-03
  2.28322770324E-03  2.32194094658E-03  2.36130481748E-03  2.40133025060E-03
  2.44202836437E-03  2.48341046409E-03  2.52548804505E-03  2.56827279573E-03
  2.61177660107E-03  2.65601154574E-03  2.70098991750E-03  2.74672421063E-03
  2.79322712941E-03  2.84051159161E-03  2.88859073209E-03  2.93747790650E-03
  2.98718669491E-03  3.03773090565E-03  3.08912457908E-03  3.14138199158E-03
  3.19451765941E-03  3.24854634283E-03  3.30348305016E-03  3.35934304194E-03
  3.41614183519E-03  3.47389520773E-03  3.53261920254E-03  3.59233013220E-03
  3.65304458347E-03  3.71477942187E-03  3.77755179635E-03  3.84137914411E-03
  3.90627919536E-03  3.97226997831E-03  4.03936982416E-03  4.10759737219E-03
  4.17697157493E-03  4.24751170345E-03  4.31923735267E-03  4.39216844685E-03
  4.46632524509E-03  4.54172834699E-03  4.61839869832E-03  4.69635759692E-03
  4.77562669851E-03  4.85622802282E-03  4.93818395962E-03  5.02151727497E-03
  5.10625111754E-03  5.19240902507E-03  5.28001493086E-03  5.36909317045E-03
  5.45966848836E-03  5.55176604498E-03  5.64541142358E-03  5.74063063734E-03
  5.83745013667E-03  5.93589681649E-03  6.03599802374E-03  6.13778156495E-03
  6.24127571399E-03  6.34650921988E-03  6.45351131484E-03  6.56231172236E-03
  6.67294066548E-03  6.78542887517E-03  6.89980759887E-03  7.01610860919E-03
  7.13436421271E-03  7.25460725898E-03  7.37687114961E-03  7.50118984758E-03
  7.62759788666E-03  7.75613038101E-03  7.88682303493E-03  8.01971215276E-03
  8.15483464902E-03  8.29222805859E-03  8.43193054719E-03  8.57398092198E-03
  8.71841864229E-03  8.86528383065E-03  9.01461728389E-03  9.16646048448E-03
  9.32085561207E-03  9.47784555518E-03  9.63747392314E-03  9.79978505820E-03
  9.96482404781E-03  1.01326367372E-02  1.03032697421E-02  1.04767704617E-02
  1.06531870916E-02  1.08325686378E-02  1.10149649295E-02  1.12004266335E-02
  1.13890052682E-02  1.15807532177E-02  1.17757237466E-02  1.19739710146E-02
  1.21755500917E-02  1.23805169734E-02  1.25889285963E-02  1.28008428537E-02
  1.30163186121E-02  1.32354157273E-02  1.34581950610E-02  1.36847184979E-02
  1.39150489624E-02  1.41492504368E-02  1.43873879786E-02  1.46295277386E-02
  1.48757369793E-02  1.51260840940E-02  1.53806386249E-02  1.56394712834E-02
  1.59026539691E-02  1.61702597899E-02  1.64423630826E-02  1.67190394331E-02
  1.70003656978E-02  1.72864200246E-02  1.75772818749E-02  1.78730320456E-02
  1.81737526914E-02  1.84795273477E-02  1.87904409539E-02  1.91065798769E-02
  1.94280319351E-02  1.97548864227E-02  2.00872341349E-02  2.04251673925E-02
  2.07687800681E-02  2.11181676119E-02  2.14734270781E-02  2.18346571524E-02
  2.22019581785E-02  2.25754321871E-02  2.29551829233E-02  2.33413158758E-02
  2.37339383063E-02  2.41331592790E-02  2.45390896913E-02  2.49518423043E-02
  2.53715317740E-02  2.57982746836E-02  2.62321895756E-02  2.66733969845E-02
  2.71220194710E-02  2.75781816552E-02  2.80420102517E-02  2.85136341049E-02
  2.89931842244E-02  2.94807938217E-02  2.99765983469E-02  3.04807355268E-02
  3.09933454027E-02  3.15145703695E-02  3.20445552153E-02  3.25834471616E-02
  3.31313959039E-02  3.36885536538E-02  3.42550751810E-02  3.48311178561E-02
  3.54168416947E-02  3.60124094017E-02  3.66179864163E-02  3.72337409583E-02
  3.78598440746E-02  3.84964696867E-02  3.91437946392E-02  3.98019987487E-02
  4.04712648539E-02  4.11517788664E-02  4.18437298222E-02  4.25473099344E-02
  4.32627146464E-02  4.39901426864E-02  4.47297961223E-02  4.54818804183E-02
  4.62466044914E-02  4.70241807699E-02  4.78148252523E-02  4.86187575671E-02
  4.94362010339E-02  5.02673827258E-02  5.11125335317E-02  5.19718882213E-02
  5.28456855098E-02  5.37341681242E-02  5.46375828709E-02  5.55561807044E-02
  5.64902167965E-02  5.74399506078E-02  5.84056459593E-02  5.93875711059E-02
  6.03859988110E-02  6.14012064219E-02  6.24334759474E-02  6.34830941355E-02
  6.45503525537E-02  6.56355476695E-02  6.67389809329E-02  6.78609588603E-02
  6.90017931195E-02  7.01618006161E-02  7.13413035820E-02  7.25406296644E-02
  7.37601120171E-02  7.50000893932E-02  7.62609062388E-02  7.75429127888E-02
  7.88464651645E-02  8.01719254720E-02  8.15196619034E-02  8.28900488386E-02
  8.42834669493E-02  8.57003033051E-02  8.71409514809E-02  8.86058116659E-02
  9.00952907751E-02  9.16098025623E-02  9.31497677350E-02  9.47156140712E-02
  9.63077765382E-02  9.79266974137E-02  9.95728264083E-02  1.01246620791E-01
  1.02948545514E-01  1.04679073347E-01  1.06438685003E-01  1.08227869273E-01
  1.10047123165E-01  1.11896952039E-01  1.13777869749E-01  1.15690398783E-01
  1.17635070411E-01  1.19612424834E-01  1.21623011328E-01  1.23667388403E-01
  1.25746123955E-01  1.27859795423E-01  1.30008989952E-01  1.32194304555E-01
  1.34416346277E-01  1.36675732366E-01  1.38973090444E-01  1.41309058681E-01
  1.43684285972E-01  1.46099432117E-01  1.48555168007E-01  1.51052175805E-01
  1.53591149142E-01  1.56172793303E-01  1.58797825429E-01  1.61466974712E-01
  1.64180982599E-01  1.66940603000E-01  1.69746602493E-01  1.72599760541E-01
  1.75500869705E-01  1.78450735869E-01  1.81450178458E-01  1.84500030670E-01
  1.87601139706E-01  1.90754367005E-01  1.93960588483E-01  1.97220694780E-01
  2.00535591499E-01  2.03906199468E-01  2.07333454989E-01  2.10818310098E-01
  2.14361732833E-01  2.17964707501E-01  2.21628234952E-01  2.25353332856E-01
  2.29141035986E-01  2.32992396506E-01  2.36908484263E-01  2.40890387085E-01
  2.44939211082E-01  2.49056080952E-01  2.53242140297E-01  2.57498551939E-01
  2.61826498241E-01  2.66227181439E-01  2.70701823972E-01  2.75251668826E-01
  2.79877979876E-01  2.84582042238E-01  2.89365162626E-01  2.94228669715E-01
  2.99173914512E-01  3.04202270726E-01  3.09315135157E-01  3.14513928076E-01
  3.19800093626E-01  3.25175100222E-01  3.30640440953E-01  3.36197634007E-01
  3.41848223084E-01  3.47593777827E-01  3.53435894262E-01  3.59376195235E-01
  3.65416330870E-01  3.71557979019E-01  3.77802845736E-01  3.84152665747E-01
  3.90609202930E-01  3.97174250811E-01  4.03849633055E-01  4.10637203979E-01
  4.17538849062E-01  4.24556485473E-01  4.31692062599E-01  4.38947562593E-01
  4.46325000916E-01  4.53826426905E-01  4.61453924338E-01  4.69209612013E-01
  4.77095644337E-01  4.85114211926E-01  4.93267542211E-01  5.01557900058E-01
  5.09987588398E-01  5.18558948866E-01  5.27274362450E-01  5.36136250154E-01
  5.45147073670E-01  5.54309336063E-01  5.63625582466E-01  5.73098400783E-01
  5.82730422414E-01  5.92524322984E-01  6.02482823082E-01  6.12608689023E-01
  6.22904733612E-01  6.33373816929E-01  6.44018847118E-01  6.54842781202E-01
  6.65848625898E-01  6.77039438457E-01  6.88418327508E-01  6.99988453928E-01
  7.11753031716E-01  7.23715328885E-01  7.35878668372E-01  7.48246428961E-01
  7.60822046220E-01  7.73609013459E-01  7.86610882693E-01  7.99831265637E-01
  8.13273834705E-01  8.26942324029E-01  8.40840530502E-01  8.54972314824E-01
  8.69341602582E-01  8.83952385338E-01  8.98808721736E-01  9.13914738631E-01
  9.29274632238E-01  9.44892669291E-01  9.60773188235E-01  9.76920600427E-01
  9.93339391363E-01  1.01003412192E+00  1.02700942964E+00  1.04427002999E+00
  1.06182071769E+00  1.07966636805E+00  1.09781193830E+00  1.11626246900E+00
  1.13502308542E+00  1.15409899895E+00  1.17349550859E+00  1.19321800238E+00
  1.21327195892E+00  1.23366294887E+00  1.25439663654E+00  1.27547878141E+00
  1.29691523978E+00  1.31871196634E+00  1.34087501590E+00  1.36341054499E+00
  1.38632481362E+00  1.40962418703E+00  1.43331513740E+00  1.45740424571E+00
  1.48189820353E+00  1.50680381490E+00  1.53212799821E+00  1.55787778810E+00
  1.58406033748E+00  1.61068291943E+00  1.63775292928E+00  1.66527788667E+00
  1.69326543758E+00  1.72172335652E+00  1.75065954865E+00  1.78008205198E+00
  1.80999903962E+00  1.84041882205E+00  1.87134984938E+00  1.90280071378E+00
  1.93478015180E+00  1.96729704682E+00  2.00036043152E+00  2.03397949039E+00
  2.06816356227E+00  2.10292214295E+00  2.13826488783E+00  2.17420161455E+00
  2.21074230578E+00  2.24789711193E+00  2.28567635403E+00  2.32409052656E+00
  2.36315030036E+00  2.40286652562E+00  2.44325023489E+00  2.48431264612E+00
  2.52606516580E+00  2.56851939212E+00  2.61168711819E+00  2.65558033533E+00
  2.70021123637E+00  2.74559221909E+00  2.79173588959E+00  2.83865506587E+00
  2.88636278132E+00  2.93487228840E+00  2.98419706229E+00  3.03435080462E+00
  3.08534744731E+00  3.13720115643E+00  3.18992633612E+00  3.24353763260E+00
  3.29804993824E+00  3.35347839569E+00  3.40983840212E+00  3.46714561343E+00
  3.52541594867E+00  3.58466559442E+00  3.64491100929E+00  3.70616892850E+00
  3.76845636855E+00  3.83179063189E+00  3.89618931178E+00  3.96167029717E+00
  4.02825177763E+00  4.09595224844E+00  4.16479051574E+00  4.23478570170E+00
  4.30595724989E+00  4.37832493062E+00  4.45190884651E+00  4.52672943800E+00
  4.60280748906E+00  4.68016413299E+00  4.75882085824E+00  4.83879951440E+00
  4.92012231827E+00  5.00281186006E+00  5.08689110960E+00  5.17238342279E+00
  5.25931254805E+00  5.34770263290E+00  5.43757823072E+00  5.52896430753E+00
  5.62188624894E+00  5.71636986720E+00  5.81244140836E+00  5.91012755958E+00
  6.00945545654E+00  6.11045269095E+00  6.21314731824E+00  6.31756786538E+00
  6.42374333872E+00  6.53170323216E+00  6.64147753522E+00  6.75309674150E+00
  6.86659185703E+00  6.98199440897E+00  7.09933645433E+00  7.21865058887E+00
  7.33996995617E+00  7.46332825684E+00  7.58875975787E+00  7.71629930215E+00
  7.84598231815E+00  7.97784482975E+00  8.11192346630E+00  8.24825547270E+00
  8.38687871985E+00  8.52783171509E+00  8.67115361294E+00  8.81688422595E+00
  8.96506403579E+00  9.11573420448E+00  9.26893658580E+00  9.42471373695E+00
  9.58310893037E+00  9.74416616575E+00  9.90793018223E+00  1.00744464709E+01
  1.02437612873E+01  1.04159216645E+01  1.05909754258E+01  1.07689711985E+01
  1.09499584269E+01  1.11339873865E+01  1.13211091976E+01  1.15113758397E+01
  1.17048401658E+01  1.19015559173E+01  1.21015777388E+01  1.23049611930E+01
  1.25117627768E+01  1.27220399363E+01  1.29358510832E+01  1.31532556109E+01
  1.33743139109E+01  1.35990873897E+01  1.38276384859E+01  1.40600306873E+01
  1.42963285489E+01  1.45365977103E+01  1.47809049147E+01  1.50293180267E+01
  1.52819060515E+01  1.55387391541E+01  1.57998886787E+01  1.60654271684E+01
  1.63354283858E+01  1.66099673328E+01  1.68891202721E+01  1.71729647478E+01
  1.74615796077E+01  1.77550450242E+01  1.80534425175E+01  1.83568549776E+01
  1.86653666877E+01  1.89790633476E+01  1.92980320973E+01  1.96223615411E+01
  1.99521417726E+01  2.02874643997E+01  2.06284225697E+01  2.09751109953E+01
  2.13276259812E+01  2.16860654503E+01  2.20505289716E+01  2.24211177873E+01
  2.27979348410E+01  2.31810848066E+01  2.35706741172E+01  2.39668109944E+01
  2.43696054788E+01  2.47791694604E+01  2.51956167096E+01  2.56190629089E+01
  2.60496256849E+01  2.64874246412E+01  2.69325813913E+01  2.73852195929E+01
  2.78454649817E+01  2.83134454065E+01  2.87892908649E+01  2.92731335393E+01
  2.97651078336E+01  3.02653504104E+01  3.07740002292E+01  3.12911985849E+01
  3.18170891471E+01  3.23518179998E+01  3.28955336823E+01  3.34483872301E+01
  3.40105322174E+01  3.45821247990E+01  3.51633237544E+01  3.57542905315E+01
  3.63551892914E+01  3.69661869545E+01  3.75874532461E+01  3.82191607443E+01
  3.88614849274E+01  3.95146042230E+01  4.01787000572E+01  4.08539569054E+01
  4.15405623433E+01  4.22387070991E+01  4.29485851062E+01  4.36703935577E+01
  4.44043329605E+01  4.51506071914E+01  4.59094235535E+01  4.66809928342E+01
  4.74655293631E+01  4.82632510721E+01  4.90743795557E+01  4.98991401325E+01
  5.07377619082E+01  5.15904778384E+01  5.24575247943E+01  5.33391436278E+01
  5.42355792387E+01  5.51470806427E+01  5.60739010403E+01  5.70162978878E+01
  5.79745329681E+01  5.89488724637E+01  5.99395870308E+01  6.09469518742E+01
  6.19712468240E+01  6.30127564132E+01  6.40717699566E+01  6.51485816314E+01
  6.62434905591E+01  6.73568008879E+01  6.84888218780E+01  6.96398679868E+01
  7.08102589568E+01  7.20003199041E+01  7.32103814089E+01  7.44407796072E+01
  7.56918562840E+01  7.69639589688E+01  7.82574410317E+01  7.95726617814E+01
  8.09099865656E+01  8.22697868719E+01  8.36524404314E+01  8.50583313235E+01
  8.64878500824E+01  8.79413938058E+01  8.94193662653E+01  9.09221780183E+01
  9.24502465221E+01  9.40039962500E+01  9.55838588091E+01  9.71902730604E+01
  9.88236852404E+01  1.00484549085E+02  1.02173325956E+02  1.03890484970E+02
  1.05636503125E+02  1.07411865437E+02  1.09217065076E+02  1.11052603496E+02
  1.12918990581E+02  1.14816744784E+02  1.16746393272E+02  1.18708472069E+02
  1.20703526211E+02  1.22732109892E+02  1.24794786620E+02  1.26892129375E+02
  1.29024720765E+02  1.31193153191E+02  1.33398029008E+02  1.35639960697E+02
  1.37919571031E+02  1.40237493249E+02  1.42594371234E+02  1.44990859688E+02
  1.47427624320E+02  1.49905342023E+02  1.52424701068E+02  1.54986401294E+02
  1.57591154300E+02  1.60239683646E+02  1.62932725051E+02  1.65671026599E+02
  1.68455348948E+02  1.71286465538E+02  1.74165162809E+02  1.77092240418E+02
  1.80068511460E+02  1.83094802696E+02  1.86171954783E+02  1.89300822504E+02
  1.92482275010E+02  1.95717196058E+02  1.99006484258E+02  2.02351053322E+02
  2.05751832318E+02
  </PP_R>
  <PP_RAB>
  3.37734061316E-07  3.43410131534E-07  3.49181595662E-07  3.55050056924E-07
  3.61017145484E-07  3.67084518906E-07  3.73253862611E-07  3.79526890344E-07
  3.85905344653E-07  3.92390997373E-07  3.98985650116E-07  4.05691134771E-07
  4.12509314017E-07  4.19442081835E-07  4.26491364041E-07  4.33659118812E-07
  4.40947337237E-07  4.48358043870E-07  4.55893297286E-07  4.63555190662E-07
  4.71345852348E-07  4.79267446469E-07  4.87322173518E-07  4.95512270970E-07
  5.03840013907E-07  5.12307715642E-07  5.20917728371E-07  5.29672443818E-07
  5.38574293905E-07  5.47625751426E-07  5.56829330732E-07  5.66187588433E-07
  5.75703124105E-07  5.85378581013E-07  5.95216646847E-07  6.05220054465E-07
  6.15391582657E-07  6.25734056912E-07  6.36250350206E-07  6.46943383800E-07
  6.57816128050E-07  6.68871603231E-07  6.80112880381E-07  6.91543082149E-07
  7.03165383664E-07  7.14983013418E-07  7.26999254162E-07  7.39217443818E-07
  7.51640976406E-07  7.64273302987E-07  7.77117932623E-07  7.90178433347E-07
  8.03458433162E-07  8.16961621042E-07  8.30691747958E-07  8.44652627923E-07
  8.58848139050E-07  8.73282224626E-07  8.87958894214E-07  9.02882224759E-07
  9.18056361728E-07  9.33485520257E-07  9.49173986321E-07  9.65126117929E-07
  9.81346346331E-07  9.97839177251E-07  1.01460919214E-06  1.03166104943E-06
  1.04899948588E-06  1.06662931781E-06  1.08455544253E-06  1.10278283961E-06
  1.12131657236E-06  1.14016178914E-06  1.15932372487E-06  1.17880770241E-06
  1.19861913412E-06  1.21876352329E-06  1.23924646573E-06  1.26007365126E-06
  1.28125086536E-06  1.30278399071E-06  1.32467900888E-06  1.34694200196E-06
  1.36957915425E-06  1.39259675401E-06  1.41600119515E-06  1.43979897907E-06
  1.46399671640E-06  1.48860112890E-06  1.51361905128E-06  1.53905743314E-06
  1.56492334084E-06  1.59122395954E-06  1.61796659512E-06  1.64515867627E-06
  1.67280775652E-06  1.70092151635E-06  1.72950776532E-06  1.75857444423E-06
  1.78812962734E-06  1.81818152464E-06  1.84873848404E-06  1.87980899380E-06
  1.91140168481E-06  1.94352533303E-06  1.97618886189E-06  2.00940134481E-06
  2.04317200769E-06  2.07751023149E-06  2.11242555482E-06  2.14792767661E-06
  2.18402645879E-06  2.22073192903E-06  2.25805428352E-06  2.29600388984E-06
  2.33459128978E-06  2.37382720232E-06  2.41372252656E-06  2.45428834480E-06
  2.49553592559E-06  2.53747672684E-06  2.58012239906E-06  2.62348478854E-06
  2.66757594066E-06  2.71240810325E-06  2.75799372997E-06  2.80434548380E-06
  2.85147624052E-06  2.89939909231E-06  2.94812735137E-06  2.99767455366E-06
  3.04805446260E-06  3.09928107293E-06  3.15136861461E-06  3.20433155671E-06
  3.25818461152E-06  3.31294273856E-06  3.36862114878E-06  3.42523530875E-06
  3.48280094500E-06  3.54133404835E-06  3.60085087837E-06  3.66136796791E-06
  3.72290212764E-06  3.78547045079E-06  3.84909031786E-06  3.91377940143E-06
  3.97955567111E-06  4.04643739851E-06  4.11444316231E-06  4.18359185345E-06
  4.25390268034E-06  4.32539517422E-06  4.39808919457E-06  4.47200493464E-06
  4.54716292706E-06  4.62358404953E-06  4.70128953064E-06  4.78030095573E-06
  4.86064027294E-06  4.94232979926E-06  5.02539222674E-06  5.10985062882E-06
  5.19572846672E-06  5.28304959593E-06  5.37183827288E-06  5.46211916168E-06
  5.55391734092E-06  5.64725831069E-06  5.74216799963E-06  5.83867277217E-06
  5.93679943579E-06  6.03657524855E-06  6.13802792658E-06  6.24118565183E-06
  6.34607707990E-06  6.45273134796E-06  6.56117808289E-06  6.67144740947E-06
  6.78356995879E-06  6.89757687672E-06  7.01349983257E-06  7.13137102792E-06
  7.25122320552E-06  7.37308965842E-06  7.49700423919E-06  7.62300136934E-06
  7.75111604889E-06  7.88138386607E-06  8.01384100722E-06  8.14852426685E-06
  8.28547105784E-06  8.42471942184E-06  8.56630803986E-06  8.71027624297E-06
  8.85666402326E-06  9.00551204496E-06  9.15686165568E-06  9.31075489797E-06
  9.46723452093E-06  9.62634399213E-06  9.78812750968E-06  9.95263001447E-06
  1.01198972027E-05  1.02899755386E-05  1.04629122671E-05  1.06387554275E-05
  1.08175538661E-05  1.09993572504E-05  1.11842160823E-05  1.13721817129E-05
  1.15633063560E-05  1.17576431030E-05  1.19552459375E-05  1.21561697506E-05
  1.23604703557E-05  1.25682045042E-05  1.27794299015E-05  1.29942052225E-05
  1.32125901286E-05  1.34346452836E-05  1.36604323708E-05  1.38900141105E-05
  1.41234542767E-05  1.43608177155E-05  1.46021703626E-05  1.48475792621E-05
  1.50971125846E-05  1.53508396466E-05  1.56088309294E-05  1.58711580989E-05
  1.61378940255E-05  1.64091128043E-05  1.66848897754E-05  1.69653015454E-05
  1.72504260083E-05  1.75403423671E-05  1.78351311560E-05  1.81348742627E-05
  1.84396549511E-05  1.87495578844E-05  1.90646691488E-05  1.93850762772E-05
  1.97108682737E-05  2.00421356381E-05  2.03789703913E-05  2.07214661006E-05
  2.10697179060E-05  2.14238225462E-05  2.17838783861E-05  2.21499854433E-05
  2.25222454167E-05  2.29007617143E-05  2.32856394817E-05  2.36769856321E-05
  2.40749088752E-05  2.44795197478E-05  2.48909306444E-05  2.53092558484E-05
  2.57346115640E-05  2.61671159483E-05  2.66068891442E-05  2.70540533137E-05
  2.75087326720E-05  2.79710535218E-05  2.84411442885E-05  2.89191355560E-05
  2.94051601026E-05  2.98993529384E-05  3.04018513422E-05  3.09127949002E-05
  3.14323255445E-05  3.19605875924E-05  3.24977277868E-05  3.30438953368E-05
  3.35992419590E-05  3.41639219201E-05  3.47380920792E-05  3.53219119317E-05
  3.59155436535E-05  3.65191521461E-05  3.71329050825E-05  3.77569729535E-05
  3.83915291154E-05  3.90367498377E-05  3.96928143527E-05  4.03599049047E-05
  4.10382068009E-05  4.17279084628E-05  4.24292014788E-05  4.31422806569E-05
  4.38673440792E-05  4.46045931569E-05  4.53542326863E-05  4.61164709052E-05
  4.68915195515E-05  4.76795939214E-05  4.84809129295E-05  4.92956991697E-05
  5.01241789765E-05  5.09665824887E-05  5.18231437127E-05  5.26941005876E-05
  5.35796950515E-05  5.44801731085E-05  5.53957848973E-05  5.63267847603E-05
  5.72734313145E-05  5.82359875236E-05  5.92147207703E-05  6.02099029313E-05
  6.12218104524E-05  6.22507244257E-05  6.32969306672E-05  6.43607197965E-05
  6.54423873173E-05  6.65422336998E-05  6.76605644640E-05  6.87976902645E-05
  6.99539269769E-05  7.11295957855E-05  7.23250232725E-05  7.35405415088E-05
  7.47764881462E-05  7.60332065111E-05  7.73110457000E-05  7.86103606766E-05
  7.99315123699E-05  8.12748677750E-05  8.26408000550E-05  8.40296886441E-05
  8.54419193537E-05  8.68778844792E-05  8.83379829090E-05  8.98226202354E-05
  9.13322088673E-05  9.28671681444E-05  9.44279244543E-05  9.60149113503E-05
  9.76285696725E-05  9.92693476695E-05  1.00937701124E-04  1.02634093477E-04
  1.04358995961E-04  1.06112887726E-04  1.07896255975E-04  1.09709596101E-04
  1.11553411819E-04  1.13428215314E-04  1.15334527376E-04  1.17272877548E-04
  1.19243804273E-04  1.21247855044E-04  1.23285586555E-04  1.25357564854E-04
  1.27464365506E-04  1.29606573745E-04  1.31784784643E-04  1.33999603274E-04
  1.36251644878E-04  1.38541535038E-04  1.40869909848E-04  1.43237416094E-04
  1.45644711433E-04  1.48092464572E-04  1.50581355459E-04  1.53112075469E-04
  1.55685327596E-04  1.58301826648E-04  1.60962299447E-04  1.63667485031E-04
  1.66418134858E-04  1.69215013015E-04  1.72058896430E-04  1.74950575089E-04
  1.77890852255E-04  1.80880544691E-04  1.83920482886E-04  1.87011511286E-04
  1.90154488531E-04  1.93350287689E-04  1.96599796504E-04  1.99903917638E-04
  2.03263568924E-04  2.06679683619E-04  2.10153210666E-04  2.13685114956E-04
  2.17276377596E-04  2.20927996183E-04  2.24640985079E-04  2.28416375692E-04
  2.32255216768E-04  2.36158574675E-04  2.40127533704E-04  2.44163196371E-04
  2.48266683717E-04  2.52439135627E-04  2.56681711143E-04  2.60995588785E-04
  2.65381966879E-04  2.69842063893E-04  2.74377118771E-04  2.78988391280E-04
  2.83677162357E-04  2.88444734471E-04  2.93292431977E-04  2.98221601488E-04
  3.03233612251E-04  3.08329856523E-04  3.13511749959E-04  3.18780732009E-04
  3.24138266312E-04  3.29585841107E-04  3.35124969643E-04  3.40757190603E-04
  3.46484068530E-04  3.52307194260E-04  3.58228185364E-04  3.64248686601E-04
  3.70370370370E-04  3.76594937180E-04  3.82924116116E-04  3.89359665324E-04
  3.95903372499E-04  4.02557055378E-04  4.09322562250E-04  4.16201772466E-04
  4.23196596961E-04  4.30308978788E-04  4.37540893654E-04  4.44894350470E-04
  4.52371391911E-04  4.59974094981E-04  4.67704571590E-04  4.75564969144E-04
  4.83557471135E-04  4.91684297756E-04  4.99947706510E-04  5.08349992841E-04
  5.16893490773E-04  5.25580573553E-04  5.34413654317E-04  5.43395186754E-04
  5.52527665793E-04  5.61813628292E-04  5.71255653745E-04  5.80856364996E-04
  5.90618428973E-04  6.00544557423E-04  6.10637507667E-04  6.20900083367E-04
  6.31335135305E-04  6.41945562173E-04  6.52734311381E-04  6.63704379873E-04
  6.74858814959E-04  6.86200715168E-04  6.97733231098E-04  7.09459566301E-04
  7.21382978168E-04  7.33506778835E-04  7.45834336100E-04  7.58369074366E-04
  7.71114475585E-04  7.84074080227E-04  7.97251488267E-04  8.10650360179E-04
  8.24274417960E-04  8.38127446157E-04  8.52213292923E-04  8.66535871084E-04
  8.81099159225E-04  8.95907202798E-04  9.10964115243E-04  9.26274079134E-04
  9.41841347336E-04  9.57670244191E-04  9.73765166716E-04  9.90130585826E-04
  1.00677104758E-03  1.02369117443E-03  1.04089566652E-03  1.05838930299E-03
  1.07617694329E-03  1.09426352855E-03  1.11265408294E-03  1.13135371507E-03
  1.15036761939E-03  1.16970107766E-03  1.18935946043E-03  1.20934822847E-03
  1.22967293435E-03  1.25033922395E-03  1.27135283804E-03  1.29271961387E-03
  1.31444548680E-03  1.33653649193E-03  1.35899876578E-03  1.38183854804E-03
  1.40506218322E-03  1.42867612248E-03  1.45268692541E-03  1.47710126183E-03
  1.50192591365E-03  1.52716777677E-03  1.55283386298E-03  1.57893130191E-03