<PP_INFO>
Generated using Vanderbilt code, version   7  3  6                              
Author: kfg        Generation date:   22    9   15                              
Automatically converted from original format                                    
    1        The Pseudo was generated with a Scalar-Relativistic Calculation
  2.10000000000E+00    Local Potential cutoff radius
nl pn  l   occ               Rcut            Rcut US             E pseu
4D  4  2 10.00      0.00000000000      1.70000000000     -3.08460928900
5S  5  0  2.00      0.00000000000      1.70000000000     -1.52212487300
5P  5  1  2.00      0.00000000000      1.80000000000     -0.88424077300
</PP_INFO>


<PP_HEADER>
   0                   Version Number
  Sb                   Element
   US                  Ultrasoft pseudopotential
    T                  Nonlinear Core Correction
SLA  PW   PSX  PSC     PBEsol  Exchange-Correlation functional
   15.00000000000      Z valence
 -183.65505415600      Total energy
    0.00000    0.00000 Suggested cutoff for wfc and rho
    2                  Max angular momentum component
  891                  Number of points in mesh
    3    6             Number of Wavefunctions, Number of Projectors
 Wavefunctions         nl  l   occ
                       4D  2 10.00
                       5S  0  2.00
                       5P  1  2.00
</PP_HEADER>


<PP_MESH>
  <PP_R>
  0.00000000000E+00  1.12197081103E-09  2.27234444837E-09  3.45183993299E-09
  4.66119448795E-09  5.90116399923E-09  7.17252348814E-09  8.47606759574E-09
  9.81261107953E-09  1.11829893227E-08  1.25880588563E-08  1.40286978944E-08
  1.55058068834E-08  1.70203090646E-08  1.85731510509E-08  2.01653034193E-08
  2.17977613168E-08  2.34715450828E-08  2.51877008865E-08  2.69473013812E-08
  2.87514463745E-08  3.06012635157E-08  3.24979090008E-08  3.44425682950E-08
  3.64364568736E-08  3.84808209819E-08  4.05769384140E-08  4.27261193115E-08
  4.49297069824E-08  4.71890787408E-08  4.95056467676E-08  5.18808589932E-08
  5.43162000026E-08  5.68131919631E-08  5.93733955760E-08  6.19984110520E-08
  6.46898791112E-08  6.74494820086E-08  7.02789445860E-08  7.31800353495E-08
  7.61545675754E-08  7.92044004431E-08  8.23314401974E-08  8.55376413400E-08
  8.88250078509E-08  9.21955944413E-08  9.56515078374E-08  9.91949080977E-08
  1.02828009963E-07  1.06553084239E-07  1.10372459220E-07  1.14288522139E-07
  1.18303720662E-07  1.22420564420E-07  1.26641626574E-07  1.30969545426E-07
  1.35407026064E-07  1.39956842060E-07  1.44621837196E-07  1.49404927246E-07
  1.54309101797E-07  1.59337426118E-07  1.64493043075E-07  1.69779175097E-07
  1.75199126188E-07  1.80756283995E-07  1.86454121921E-07  1.92296201300E-07
  1.98286173624E-07  2.04427782818E-07  2.10724867590E-07  2.17181363821E-07
  2.23801307033E-07  2.30588834905E-07  2.37548189864E-07  2.44683721731E-07
  2.51999890449E-07  2.59501268858E-07  2.67192545567E-07  2.75078527872E-07
  2.83164144770E-07  2.91454450034E-07  2.99954625375E-07  3.08669983679E-07
  3.17605972329E-07  3.26768176609E-07  3.36162323195E-07  3.45794283733E-07
  3.55670078514E-07  3.65795880229E-07  3.76178017835E-07  3.86822980507E-07
  3.97737421691E-07  4.08928163269E-07  4.20402199819E-07  4.32166702987E-07
  4.44229025971E-07  4.56596708115E-07  4.69277479623E-07  4.82279266390E-07
  4.95610194956E-07  5.09278597586E-07  5.23293017475E-07  5.37662214093E-07
  5.52395168655E-07  5.67501089738E-07  5.82989419033E-07  5.98869837252E-07
  6.15152270171E-07  6.31846894843E-07  6.48964145950E-07  6.66514722331E-07
  6.84509593670E-07  7.02960007344E-07  7.21877495465E-07  7.41273882078E-07
  7.61161290555E-07  7.81552151175E-07  8.02459208889E-07  8.23895531289E-07
  8.45874516775E-07  8.68409902926E-07  8.91515775095E-07  9.15206575202E-07
  9.39497110769E-07  9.64402564171E-07  9.89938502128E-07  1.01612088543E-06
  1.04296607893E-06  1.07049086173E-06  1.09871243772E-06  1.12764844632E-06
  1.15731697346E-06  1.18773656293E-06  1.21892622799E-06  1.25090546317E-06
  1.28369425655E-06  1.31731310218E-06  1.35178301294E-06  1.38712553365E-06
  1.42336275452E-06  1.46051732502E-06  1.49861246794E-06  1.53767199399E-06
  1.57772031666E-06  1.61878246744E-06  1.66088411152E-06  1.70405156379E-06
  1.74831180532E-06  1.79369250019E-06  1.84022201283E-06  1.88792942569E-06
  1.93684455745E-06  1.98699798167E-06  2.03842104587E-06  2.09114589114E-06
  2.14520547222E-06  2.20063357811E-06  2.25746485318E-06  2.31573481883E-06
  2.37547989568E-06  2.43673742635E-06  2.49954569880E-06  2.56394397023E-06
  2.62997249167E-06  2.69767253308E-06  2.76708640920E-06  2.83825750596E-06
  2.91123030762E-06  2.98605042454E-06  3.06276462174E-06  3.14142084809E-06
  3.22206826629E-06  3.30475728360E-06  3.38953958335E-06  3.47646815723E-06
  3.56559733844E-06  3.65698283562E-06  3.75068176767E-06  3.84675269948E-06
  3.94525567850E-06  4.04625227232E-06  4.14980560707E-06  4.25598040698E-06
  4.36484303474E-06  4.47646153305E-06  4.59090566709E-06  4.70824696818E-06
  4.82855877845E-06  4.95191629670E-06  5.07839662539E-06  5.20807881884E-06
  5.34104393265E-06  5.47737507434E-06  5.61715745532E-06  5.76047844412E-06
  5.90742762102E-06  6.05809683404E-06  6.21258025636E-06  6.37097444513E-06
  6.53337840187E-06  6.69989363436E-06  6.87062422002E-06  7.04567687104E-06
  7.22516100102E-06  7.40918879338E-06  7.59787527149E-06  7.79133837052E-06
  7.98969901123E-06  8.19308117547E-06  8.40161198370E-06  8.61542177448E-06
  8.83464418588E-06  9.05941623905E-06  9.28987842383E-06  9.52617478660E-06
  9.76845302027E-06  1.00168645566E-05  1.02715646610E-05  1.05327125291E-05
  1.08004713871E-05  1.10750085928E-05  1.13564957409E-05  1.16451087701E-05
  1.19410280730E-05  1.22444386087E-05  1.25555300186E-05  1.28744967451E-05
  1.32015381527E-05  1.35368586529E-05  1.38806678321E-05  1.42331805820E-05
  1.45946172347E-05  1.49652036998E-05  1.53451716060E-05  1.57347584454E-05
  1.61342077227E-05  1.65437691066E-05  1.69636985863E-05  1.73942586313E-05
  1.78357183558E-05  1.82883536865E-05  1.87524475350E-05  1.92282899753E-05
  1.97161784243E-05  2.02164178282E-05  2.07293208530E-05  2.12552080795E-05
  2.17944082047E-05  2.23472582459E-05  2.29141037526E-05  2.34952990216E-05
  2.40912073190E-05  2.47022011066E-05  2.53286622757E-05  2.59709823847E-05
  2.66295629047E-05  2.73048154700E-05  2.79971621353E-05  2.87070356399E-05
  2.94348796779E-05  3.01811491753E-05  3.09463105751E-05  3.17308421279E-05
  3.25352341915E-05  3.33599895372E-05  3.42056236638E-05  3.50726651203E-05
  3.59616558357E-05  3.68731514583E-05  3.78077217024E-05  3.87659507048E-05
  3.97484373900E-05  4.07557958440E-05  4.17886556986E-05  4.28476625250E-05
  4.39334782368E-05  4.50467815043E-05  4.61882681781E-05  4.73586517247E-05
  4.85586636718E-05  4.97890540659E-05  5.10505919412E-05  5.23440657999E-05
  5.36702841051E-05  5.50300757866E-05  5.64242907585E-05  5.78538004503E-05
  5.93194983523E-05  6.08223005734E-05  6.23631464138E-05  6.39429989523E-05
  6.55628456483E-05  6.72236989586E-05  6.89265969707E-05  7.06726040512E-05
  7.24628115113E-05  7.42983382891E-05  7.61803316484E-05  7.81099678965E-05
  8.00884531188E-05  8.21170239329E-05  8.41969482617E-05  8.63295261255E-05
  8.85160904550E-05  9.07580079240E-05  9.30566798040E-05  9.54135428397E-05
  9.78300701471E-05  1.00307772135E-04  1.02848197447E-04  1.05452933931E-04
  1.08123609634E-04  1.10861893815E-04  1.13669497989E-04  1.16548177001E-04
  1.19499730120E-04  1.22526002161E-04  1.25628884644E-04  1.28810316971E-04
  1.32072287641E-04  1.35416835491E-04  1.38846050973E-04  1.42362077459E-04
  1.45967112579E-04  1.49663409597E-04  1.53453278820E-04  1.57339089039E-04
  1.61323269012E-04  1.65408308981E-04  1.69596762230E-04  1.73891246677E-04
  1.78294446515E-04  1.82809113889E-04  1.87438070611E-04  1.92184209930E-04
  1.97050498338E-04  2.02039977423E-04  2.07155765773E-04  2.12401060922E-04
  2.17779141350E-04  2.23293368531E-04  2.28947189039E-04  2.34744136694E-04
  2.40687834778E-04  2.46781998295E-04  2.53030436296E-04  2.59437054258E-04
  2.66005856525E-04  2.72740948814E-04  2.79646540776E-04  2.86726948631E-04
  2.93986597864E-04  3.01430025992E-04  3.09061885401E-04  3.16886946250E-04
  3.24910099458E-04  3.33136359756E-04  3.41570868825E-04  3.50218898508E-04
  3.59085854104E-04  3.68177277751E-04  3.77498851882E-04  3.87056402786E-04
  3.96855904243E-04  4.06903481261E-04  4.17205413901E-04  4.27768141209E-04
  4.38598265231E-04  4.49702555147E-04  4.61087951502E-04  4.72761570537E-04
  4.84730708646E-04  4.97002846928E-04  5.09585655870E-04  5.22487000136E-04
  5.35714943488E-04  5.49277753820E-04  5.63183908330E-04  5.77442098818E-04
  5.92061237116E-04  6.07050460662E-04  6.22419138209E-04  6.38176875680E-04
  6.54333522175E-04  6.70899176123E-04  6.87884191597E-04  7.05299184785E-04
  7.23155040624E-04  7.41462919606E-04  7.60234264751E-04  7.79480808761E-04
  7.99214581352E-04  8.19447916775E-04  8.40193461522E-04  8.61464182235E-04
  8.83273373807E-04  9.05634667692E-04  9.28562040426E-04  9.52069822365E-04
  9.76172706636E-04  1.00088575833E-03  1.02622442390E-03  1.05220454085E-03
  1.07884234759E-03  1.10615449362E-03  1.13415804991E-03  1.16287051961E-03
  1.19230984894E-03  1.22249443844E-03  1.25344315446E-03  1.28517534095E-03
  1.31771083158E-03  1.35106996206E-03  1.38527358296E-03  1.42034307264E-03
  1.45630035068E-03  1.49316789155E-03  1.53096873866E-03  1.56972651877E-03
  1.60946545675E-03  1.65021039074E-03  1.69198678765E-03  1.73482075907E-03
  1.77873907765E-03  1.82376919375E-03  1.86993925267E-03  1.91727811219E-03
  1.96581536065E-03  2.01558133541E-03  2.06660714181E-03  2.11892467266E-03
  2.17256662810E-03  2.22756653611E-03  2.28395877341E-03  2.34177858701E-03
  2.40106211615E-03  2.46184641498E-03  2.52416947565E-03  2.58807025213E-03
  2.65358868446E-03  2.72076572380E-03  2.78964335798E-03  2.86026463778E-03
  2.93267370379E-03  3.00691581403E-03  3.08303737224E-03  3.16108595687E-03
  3.24111035083E-03  3.32316057196E-03  3.40728790433E-03  3.49354493026E-03
  3.58198556320E-03  3.67266508142E-03  3.76564016258E-03  3.86096891911E-03
  3.95871093461E-03  4.05892730101E-03  4.16168065681E-03  4.26703522619E-03
  4.37505685920E-03  4.48581307286E-03  4.59937309342E-03  4.71580789959E-03
  4.83519026691E-03  4.95759481324E-03  5.08309804542E-03  5.21177840705E-03
  5.34371632754E-03  5.47899427239E-03  5.61769679472E-03  5.75991058812E-03
  5.90572454084E-03  6.05522979135E-03  6.20851978529E-03  6.36569033390E-03
  6.52683967390E-03  6.69206852885E-03  6.86148017219E-03  7.03518049170E-03
  7.21327805573E-03  7.39588418105E-03  7.58311300245E-03  7.77508154403E-03
  7.97190979238E-03  8.17372077155E-03  8.38064061999E-03  8.59279866932E-03
  8.81032752525E-03  9.03336315038E-03  9.26204494925E-03  9.49651585541E-03
  9.73692242082E-03  9.98341490741E-03  1.02361473810E-02  1.04952778076E-02
  1.07609681522E-02  1.10333844800E-02  1.13126970598E-02  1.15990804713E-02
  1.18927137134E-02  1.21937803164E-02  1.25024684567E-02  1.28189710745E-02
  1.31434859942E-02  1.34762160483E-02  1.38173692037E-02  1.41671586924E-02
  1.45258031442E-02  1.48935267234E-02  1.52705592695E-02  1.56571364398E-02
  1.60534998578E-02  1.64598972635E-02  1.68765826685E-02  1.73038165148E-02
  1.77418658374E-02  1.81910044314E-02  1.86515130230E-02  1.91236794451E-02
  1.96077988171E-02  2.01041737293E-02  2.06131144323E-02  2.11349390305E-02
  2.16699736813E-02  2.22185527988E-02  2.27810192627E-02  2.33577246330E-02
  2.39490293692E-02  2.45553030561E-02  2.51769246345E-02  2.58142826380E-02
  2.64677754362E-02  2.71378114834E-02  2.78248095738E-02  2.85291991037E-02
  2.92514203394E-02  2.99919246928E-02  3.07511750032E-02  3.15296458266E-02
  3.23278237328E-02  3.31462076088E-02  3.39853089713E-02  3.48456522860E-02
  3.57277752953E-02  3.66322293550E-02  3.75595797781E-02  3.85104061890E-02
  3.94853028851E-02  4.04848792086E-02  4.15097599271E-02  4.25605856246E-02
  4.36380131012E-02  4.47427157843E-02  4.58753841490E-02  4.70367261498E-02
  4.82274676633E-02  4.94483529417E-02  5.07001450782E-02  5.19836264834E-02
  5.32995993751E-02  5.46488862791E-02  5.60323305438E-02  5.74507968668E-02
  5.89051718356E-02  6.03963644821E-02  6.19253068502E-02  6.34929545786E-02
  6.51002874982E-02  6.67483102443E-02  6.84380528849E-02  7.01705715642E-02
  7.19469491625E-02  7.37682959739E-02  7.56357503994E-02  7.75504796587E-02
  7.95136805199E-02  8.15265800476E-02  8.35904363694E-02  8.57065394628E-02
  8.78762119610E-02  9.01008099799E-02  9.23817239659E-02  9.47203795643E-02
  9.71182385111E-02  9.95767995461E-02  1.02097599350E-01  1.04682213505E-01
  1.07332257478E-01  1.10049387635E-01  1.12835302268E-01  1.15691742666E-01
  1.18620494198E-01  1.21623387427E-01  1.24702299260E-01  1.27859154118E-01
  1.31095925136E-01  1.34414635403E-01  1.37817359221E-01  1.41306223402E-01
  1.44883408600E-01  1.48551150673E-01  1.52311742078E-01  1.56167533308E-01
  1.60120934358E-01  1.64174416231E-01  1.68330512487E-01  1.72591820821E-01
  1.76961004688E-01  1.81440794972E-01  1.86033991687E-01  1.90743465730E-01
  1.95572160676E-01  2.00523094617E-01  2.05599362047E-01  2.10804135799E-01
  2.16140669026E-01  2.21612297234E-01  2.27222440370E-01  2.32974604956E-01
  2.38872386282E-01  2.44919470652E-01  2.51119637693E-01  2.57476762709E-01
  2.63994819111E-01  2.70677880897E-01  2.77530125197E-01  2.84555834887E-01
  2.91759401266E-01  2.99145326795E-01  3.06718227919E-01  3.14482837948E-01
  3.22444010015E-01  3.30606720113E-01  3.38976070201E-01  3.47557291395E-01
  3.56355747238E-01  3.65376937050E-01  3.74626499371E-01  3.84110215476E-01
  3.93834012997E-01  4.03803969625E-01  4.14026316906E-01  4.24507444141E-01
  4.35253902375E-01  4.46272408494E-01  4.57569849424E-01  4.69153286432E-01
  4.81029959545E-01  4.93207292068E-01  5.05692895233E-01  5.18494572946E-01
  5.31620326673E-01  5.45078360438E-01  5.58877085950E-01  5.73025127861E-01
  5.87531329158E-01  6.02404756690E-01  6.17654706832E-01  6.33290711300E-01
  6.49322543105E-01  6.65760222665E-01  6.82614024064E-01  6.99894481477E-01
  7.17612395752E-01  7.35778841162E-01  7.54405172328E-01  7.73503031311E-01
  7.93084354897E-01  8.13161382049E-01  8.33746661563E-01  8.54853059910E-01
  8.76493769274E-01  8.98682315804E-01  9.21432568064E-01  9.44758745701E-01
  9.68675428337E-01  9.93197564677E-01  1.01834048185E+00  1.04411989501E+00
  1.07055191711E+00  1.09765306905E+00  1.12544028990E+00  1.15393094761E+00
  1.18314284975E+00  1.21309425471E+00  1.24380388309E+00  1.27529092943E+00
  1.30757507413E+00  1.34067649585E+00  1.37461588405E+00  1.40941445195E+00
  1.44509394979E+00  1.48167667842E+00  1.51918550323E+00  1.55764386847E+00
  1.59707581186E+00  1.63750597964E+00  1.67895964200E+00  1.72146270881E+00
  1.76504174589E+00  1.80972399154E+00  1.85553737362E+00  1.90251052699E+00
  1.95067281140E+00  2.00005432985E+00  2.05068594739E+00  2.10259931043E+00
  2.15582686651E+00  2.21040188458E+00  2.26635847582E+00  2.32373161491E+00
  2.38255716193E+00  2.44287188476E+00  2.50471348207E+00  2.56812060687E+00
  2.63313289068E+00  2.69979096828E+00  2.76813650316E+00  2.83821221349E+00
  2.91006189887E+00  2.98373046769E+00  3.05926396522E+00  3.13670960233E+00
  3.21611578509E+00  3.29753214493E+00  3.38100956974E+00  3.46660023561E+00
  3.55435763951E+00  3.64433663266E+00  3.73659345487E+00  3.83118576965E+00
  3.92817270028E+00  4.02761486675E+00  4.12957442365E+00  4.23411509903E+00
  4.34130223419E+00  4.45120282461E+00  4.56388556171E+00  4.67942087589E+00
  4.79788098047E+00  4.91933991687E+00  5.04387360089E+00  5.17155987013E+00
  5.30247853266E+00  5.43671141692E+00  5.57434242282E+00  5.71545757422E+00
  5.86014507268E+00  6.00849535261E+00  6.16060113775E+00  6.31655749918E+00
  6.47646191469E+00  6.64041432976E+00  6.80851721997E+00  6.98087565511E+00
  7.15759736480E+00  7.33879280588E+00  7.52457523139E+00  7.71506076139E+00
  7.91036845554E+00  8.11062038750E+00  8.31594172126E+00  8.52646078933E+00
  8.74230917298E+00  8.96362178448E+00  9.19053695141E+00  9.42319650314E+00
  9.66174585947E+00  9.90633412150E+00  1.01571141649E+01  1.04142427352E+01
  1.06778805464E+01  1.09481923805E+01  1.12253471912E+01  1.15095182094E+01
  1.18008830512E+01  1.20996238291E+01  1.24059272657E+01  1.27199848108E+01
  1.30419927605E+01  1.33721523802E+01  1.37106700305E+01  1.40577572959E+01
  1.44136311173E+01  1.47785139273E+01  1.51526337897E+01  1.55362245415E+01
  1.59295259394E+01  1.63327838095E+01  1.67462502013E+01  1.71701835446E+01
  1.76048488116E+01  1.80505176822E+01  1.85074687139E+01  1.89759875162E+01
  1.94563669283E+01  1.99489072032E+01  2.04539161945E+01  2.09717095493E+01
  2.15026109053E+01  2.20469520930E+01  2.26050733436E+01  2.31773235009E+01
  2.37640602398E+01  2.43656502901E+01  2.49824696650E+01  2.56149038967E+01
  2.62633482771E+01  2.69282081053E+01  2.76098989401E+01  2.83088468605E+01
  2.90254887318E+01  2.97602724785E+01  3.05136573643E+01  3.12861142792E+01
  3.20781260340E+01  3.28901876619E+01  3.37228067278E+01  3.45765036456E+01
  3.54518120038E+01  3.63492788986E+01  3.72694652761E+01  3.82129462825E+01
  3.91803116244E+01  4.01721659365E+01  4.11891291600E+01  4.22318369301E+01
  4.33009409731E+01  4.43971095138E+01  4.55210276932E+01  4.66733979967E+01
  4.78549406934E+01  4.90663942859E+01  5.03085159720E+01  5.15820821184E+01
  5.28878887453E+01  5.42267520242E+01  5.55995087885E+01  5.70070170557E+01
  5.84501565643E+01  5.99298293236E+01  6.14469601770E+01  6.30024973809E+01
  6.45974131965E+01  6.62327044983E+01  6.79093933965E+01  6.96285278761E+01
  7.13911824524E+01  7.31984588417E+01  7.50514866506E+01  7.69514240818E+01
  7.88994586581E+01  8.08968079644E+01  8.29447204092E+01  8.50444760044E+01
  8.71973871655E+01  8.94047995321E+01  9.16680928089E+01  9.39886816277E+01
  9.63680164321E+01  9.88075843839E+01  1.01308910292E+02  1.03873557568E+02
  1.06503129198E+02  1.09199268751E+02  1.11963661402E+02  1.14798034986E+02
  1.17704161078E+02  1.20683856103E+02  1.23738982467E+02  1.26871449723E+02
  1.30083215765E+02  1.33376288051E+02  1.36752724860E+02  1.40214636573E+02
  1.43764186998E+02  1.47403594720E+02  1.51135134487E+02  1.54961138633E+02
  1.58883998536E+02  1.62906166109E+02  1.67030155339E+02  1.71258543854E+02
  1.75593974534E+02  1.80039157164E+02  1.84596870127E+02  1.89269962144E+02
  1.94061354049E+02  1.98974040617E+02  2.04011092437E+02
  </PP_R>
  <PP_RAB>
  1.10800461127E-09  1.13605388154E-09  1.16481322247E-09  1.19430060959E-09
  1.22453447346E-09  1.25553371125E-09  1.28731769847E-09  1.31990630116E-09
  1.35331988825E-09  1.38757934433E-09  1.42270608267E-09  1.45872205863E-09
  1.49564978335E-09  1.53351233788E-09  1.57233338754E-09  1.61213719675E-09
  1.65294864419E-09  1.69479323833E-09  1.73769713343E-09  1.78168714579E-09
  1.82679077063E-09  1.87303619916E-09  1.92045233629E-09  1.96906881864E-09
  2.01891603311E-09  2.07002513581E-09  2.12242807161E-09  2.17615759405E-09
  2.23124728583E-09  2.28773157979E-09  2.34564578046E-09  2.40502608610E-09
  2.46590961133E-09  2.52833441034E-09  2.59233950067E-09  2.65796488757E-09
  2.72525158904E-09  2.79424166148E-09  2.86497822591E-09  2.93750549500E-09
  3.01186880065E-09  3.08811462234E-09  3.16629061620E-09  3.24644564477E-09
  3.32862980754E-09  3.41289447230E-09  3.49929230720E-09  3.58787731371E-09
  3.67870486033E-09  3.77183171724E-09  3.86731609176E-09  3.96521766473E-09
  4.06559762782E-09  4.16851872177E-09  4.27404527562E-09  4.38224324690E-09
  4.49318026287E-09  4.60692566276E-09  4.72355054116E-09  4.84312779241E-09
  4.96573215619E-09  5.09144026422E-09  5.22033068815E-09  5.35248398870E-09
  5.48798276598E-09  5.62691171113E-09  5.76935765928E-09  5.91540964377E-09
  6.06515895186E-09  6.21869918172E-09  6.37612630101E-09  6.53753870680E-09
  6.70303728710E-09  6.87272548390E-09  7.04670935786E-09  7.22509765455E-09
  7.40800187248E-09  7.59553633272E-09  7.78781825044E-09  7.98496780807E-09
  8.18710823051E-09  8.39436586211E-09  8.60687024564E-09  8.82475420325E-09
  9.04815391950E-09  9.27720902650E-09  9.51206269113E-09  9.75286170459E-09
  9.99975657410E-09  1.02529016170E-08  1.05124550572E-08  1.07785791239E-08
  1.10514401535E-08  1.13312086930E-08  1.16180596067E-08  1.19121721859E-08
  1.22137302605E-08  1.25229223141E-08  1.28399416018E-08  1.31649862710E-08
  1.34982594852E-08  1.38399695509E-08  1.41903300481E-08  1.45495599636E-08
  1.49178838276E-08  1.52955318547E-08  1.56827400871E-08  1.60797505426E-08
  1.64868113655E-08  1.69041769823E-08  1.73321082600E-08  1.77708726695E-08
  1.82207444530E-08  1.86820047949E-08  1.91549419979E-08  1.96398516632E-08
  2.01370368751E-08  2.06468083906E-08  2.11694848335E-08  2.17053928935E-08
  2.22548675306E-08  2.28182521844E-08  2.33958989886E-08  2.39881689913E-08
  2.45954323805E-08  2.52180687155E-08  2.58564671645E-08  2.65110267471E-08
  2.71821565844E-08  2.78702761544E-08  2.85758155543E-08  2.92992157692E-08
  3.00409289477E-08  3.08014186846E-08  3.15811603110E-08  3.23806411905E-08
  3.32003610249E-08  3.40408321657E-08  3.49025799348E-08  3.57861429524E-08
  3.66920734744E-08  3.76209377367E-08  3.85733163097E-08  3.95498044611E-08
  4.05510125278E-08  4.15775662973E-08  4.26301073992E-08  4.37092937060E-08
  4.48157997442E-08  4.59503171161E-08  4.71135549321E-08  4.83062402535E-08
  4.95291185476E-08  5.07829541531E-08  5.20685307581E-08  5.33866518897E-08
  5.47381414167E-08  5.61238440640E-08  5.75446259407E-08  5.90013750820E-08
  6.04950020033E-08  6.20264402701E-08  6.35966470813E-08  6.52066038671E-08
  6.68573169029E-08  6.85498179383E-08  7.02851648413E-08  7.20644422604E-08
  7.38887623017E-08  7.57592652248E-08  7.76771201548E-08  7.96435258135E-08
  8.16597112684E-08  8.37269367012E-08  8.58464941949E-08  8.80197085421E-08
  9.02479380723E-08  9.25325755017E-08  9.48750488030E-08  9.72768220982E-08
  9.97393965738E-08  1.02264311419E-07  1.04853144788E-07  1.07507514786E-07
  1.10229080480E-07  1.13019542937E-07  1.15880646289E-07  1.18814178816E-07
  1.21821974073E-07  1.24905912029E-07  1.28067920246E-07  1.31309975082E-07
  1.34634102928E-07  1.38042381470E-07  1.41536940994E-07  1.45119965714E-07
  1.48793695137E-07  1.52560425462E-07  1.56422511020E-07  1.60382365739E-07
  1.64442464658E-07  1.68605345470E-07  1.72873610112E-07  1.77249926387E-07
  1.81737029637E-07  1.86337724446E-07  1.91054886398E-07  1.95891463874E-07
  2.00850479892E-07  2.05935033998E-07  2.11148304204E-07  2.16493548973E-07
  2.21974109258E-07  2.27593410587E-07  2.33354965207E-07  2.39262374276E-07
  2.45319330118E-07  2.51529618527E-07  2.57897121135E-07  2.64425817840E-07
  2.71119789288E-07  2.77983219431E-07  2.85020398134E-07  2.92235723865E-07
  2.99633706436E-07  3.07218969828E-07  3.14996255076E-07  3.22970423238E-07
  3.31146458428E-07  3.39529470935E-07  3.48124700413E-07  3.56937519162E-07
  3.65973435479E-07  3.75238097107E-07  3.84737294760E-07  3.94476965747E-07
  4.04463197679E-07  4.14702232276E-07  4.25200469268E-07  4.35964470395E-07
  4.47000963507E-07  4.58316846773E-07  4.69919192987E-07  4.81815253994E-07
  4.94012465220E-07  5.06518450317E-07  5.19341025935E-07  5.32488206600E-07
  5.45968209728E-07  5.59789460760E-07  5.73960598427E-07  5.88490480153E-07
  6.03388187585E-07  6.18663032277E-07  6.34324561503E-07  6.50382564229E-07
  6.66847077229E-07  6.83728391361E-07  7.01037057994E-07  7.18783895609E-07
  7.36979996558E-07  7.55636733995E-07  7.74765768988E-07  7.94379057808E-07
  8.14488859399E-07  8.35107743040E-07  8.56248596206E-07  8.77924632618E-07
  9.00149400504E-07  9.22936791068E-07  9.46301047170E-07  9.70256772232E-07
  9.94818939361E-07  1.02000290071E-06  1.04582439708E-06  1.07229956774E-06
  1.09944496053E-06  1.12727754222E-06  1.15581470906E-06  1.18507429773E-06
  1.21507459641E-06  1.24583435626E-06  1.27737280314E-06  1.30970964961E-06
  1.34286510724E-06  1.37685989928E-06  1.41171527357E-06  1.44745301587E-06
  1.48409546342E-06  1.52166551895E-06  1.56018666496E-06  1.59968297842E-06
  1.64017914582E-06  1.68170047858E-06  1.72427292888E-06  1.76792310589E-06
  1.81267829239E-06  1.85856646184E-06  1.90561629582E-06  1.95385720202E-06
  2.00331933258E-06  2.05403360293E-06  2.10603171115E-06  2.15934615775E-06
  2.21401026599E-06  2.27005820271E-06  2.32752499971E-06  2.38644657560E-06
  2.44685975829E-06  2.50880230798E-06  2.57231294078E-06  2.63743135290E-06
  2.70419824547E-06  2.77265534998E-06  2.84284545433E-06  2.91481242964E-06
  2.98860125761E-06  3.06425805864E-06  3.14183012071E-06  3.22136592889E-06
  3.30291519563E-06  3.38652889189E-06  3.47225927895E-06  3.56015994109E-06
  3.65028581908E-06  3.74269324454E-06  3.83743997511E-06  3.93458523059E-06
  4.03418972991E-06  4.13631572914E-06  4.24102706035E-06  4.34838917153E-06
  4.45846916750E-06  4.57133585183E-06  4.68705976987E-06  4.80571325285E-06
  4.92737046306E-06  5.05210744020E-06  5.18000214895E-06  5.31113452766E-06
  5.44558653835E-06  5.58344221790E-06  5.72478773059E-06  5.86971142196E-06
  6.01830387405E-06  6.17065796198E-06  6.32686891200E-06  6.48703436105E-06
  6.65125441775E-06  6.81963172497E-06  6.99227152402E-06  7.16928172039E-06
  7.35077295121E-06  7.53685865442E-06  7.72765513963E-06  7.92328166087E-06
  8.12386049106E-06  8.32951699851E-06  8.54037972524E-06  8.75658046731E-06
  8.97825435722E-06  9.20553994837E-06  9.43857930166E-06  9.67751807426E-06
  9.92250561069E-06  1.01736950361E-05  1.04312433521E-05  1.06953115348E-05
  1.09660646354E-05  1.12436718833E-05  1.15283067922E-05  1.18201472680E-05
  1.21193757208E-05  1.24261791778E-05  1.27407494014E-05  1.30632830080E-05
  1.33939815918E-05  1.37330518501E-05  1.40807057129E-05  1.44371604751E-05
  1.48026389325E-05  1.51773695212E-05  1.55615864598E-05  1.59555298966E-05
  1.63594460590E-05  1.67735874077E-05  1.71982127945E-05  1.76335876242E-05
  1.80799840202E-05  1.85376809948E-05  1.90069646234E-05  1.94881282236E-05
  1.99814725384E-05  2.04873059240E-05  2.10059445427E-05  2.15377125605E-05
  2.20829423498E-05  2.26419746969E-05  2.32151590153E-05  2.38028535637E-05
  2.44054256705E-05  2.50232519628E-05  2.56567186022E-05  2.63062215258E-05
  2.69721666943E-05  2.76549703450E-05  2.83550592524E-05  2.90728709948E-05
  2.98088542280E-05  3.05634689655E-05  3.13371868660E-05  3.21304915284E-05
  3.29438787940E-05  3.37778570562E-05  3.46329475786E-05  3.55096848207E-05
  3.64086167717E-05  3.73303052934E-05  3.82753264712E-05  3.92442709739E-05
  4.02377444235E-05  4.12563677732E-05  4.23007776958E-05  4.33716269814E-05
  4.44695849458E-05  4.55953378484E-05  4.67495893213E-05  4.79330608095E-05
  4.91464920210E-05  5.03906413898E-05  5.16662865499E-05  5.29742248210E-05
  5.43152737070E-05  5.56902714072E-05  5.71000773399E-05  5.85455726798E-05
  6.00276609083E-05  6.15472683790E-05  6.31053448960E-05  6.47028643078E-05
  6.63408251160E-05  6.80202510995E-05  6.97421919542E-05  7.15077239491E-05
  7.33179505993E-05  7.51740033554E-05  7.70770423106E-05  7.90282569264E-05
  8.10288667753E-05  8.30801223037E-05  8.51833056130E-05  8.73397312612E-05
  8.95507470847E-05  9.18177350402E-05  9.41421120690E-05  9.65253309824E-05
  9.89688813699E-05  1.01474290530E-04  1.04043124425E-04  1.06676988659E-04
  1.09377529485E-04  1.12146434826E-04  1.14985435340E-04  1.17896305494E-04
  1.20880864677E-04  1.23940978336E-04  1.27078559140E-04  1.30295568181E-04
  1.33594016193E-04  1.36975964814E-04  1.40443527873E-04  1.43998872708E-04
  1.47644221526E-04  1.51381852788E-04  1.55214102637E-04  1.59143366352E-04
  1.63172099852E-04  1.67302821226E-04  1.71538112309E-04  1.75880620297E-04
  1.80333059398E-04  1.84898212531E-04  1.89578933066E-04  1.94378146605E-04
  1.99298852814E-04  2.04344127293E-04  2.09517123504E-04  2.14821074738E-04
  2.20259296136E-04  2.25835186764E-04  2.31552231736E-04  2.37414004390E-04
  2.43424168525E-04  2.49586480690E-04  2.55904792530E-04  2.62383053196E-04
  2.69025311811E-04  2.75835720003E-04  2.82818534500E-04  2.89978119788E-04
  2.97318950840E-04  3.04845615914E-04  3.12562819422E-04  3.20475384868E-04
  3.28588257861E-04  3.36906509211E-04  3.45435338097E-04  3.54180075315E-04
  3.63146186609E-04  3.72339276091E-04  3.81765089741E-04  3.91429519000E-04
  4.01338604450E-04  4.11498539593E-04  4.21915674718E-04  4.32596520875E-04
  4.43547753939E-04  4.54776218789E-04  4.66288933579E-04  4.78093094132E-04
  4.90196078431E-04  5.02605451237E-04  5.15328968812E-04  5.28374583767E-04
  5.41750450037E-04  5.55464927974E-04  5.69526589573E-04  5.83944223830E-04
  5.98726842235E-04  6.13883684408E-04  6.29424223867E-04  6.45358173955E-04
  6.61695493910E-04  6.78446395089E-04  6.95621347350E-04  7.13231085597E-04
  7.31286616491E-04  7.49799225325E-04  7.68780483083E-04  7.88242253670E-04
  8.08196701324E-04  8.28656298225E-04  8.49633832288E-04  8.71142415154E-04
  8.93195490388E-04  9.15806841879E-04  9.38990602458E-04  9.62761262730E-04
  9.87133680133E-04  1.01212308822E-03  1.03774510618E-03  1.06401574862E-03
  1.09095143554E-03  1.11856900261E-03  1.14688571173E-03  1.17591926175E-03
  1.20568779959E-03  1.23620993155E-03  1.26750473496E-03  1.29959177009E-03
  1.33249109238E-03  1.36622326498E-03  1.40080937160E-03  1.43627102967E-03
  1.47263040390E-03  1.50991022006E-03  1.54813377926E-03  1.58732497247E-03
  1.62750829546E-03  1.66870886411E-03  1.71095243013E-03  1.75426539711E-03
  1.79867483707E-03  1.84420850735E-03  1.89089486799E-03  1.93876309947E-03
  1.98784312100E-03  2.03816560919E-03  2.08976201724E-03  2.14266459457E-03
  2.19690640703E-03  2.25252135750E-03  2.30954420715E-03  2.36801059711E-03
  2.42795707078E-03  2.48942109666E-03  2.55244109175E-03  2.61705644562E-03
  2.68330754496E-03  2.75123579887E-03  2.82088366471E-03  2.89229467467E-03