<PP_INFO>
Generated using Vanderbilt code, version   7  3  6                              
Author: kfg        Generation date:    3    2 2014                              
Automatically converted from original format                                    
    1        The Pseudo was generated with a Scalar-Relativistic Calculation
  2.30000000000E+00    Local Potential cutoff radius
nl pn  l   occ               Rcut            Rcut US             E pseu
6S  6  0  2.00      0.00000000000      2.30000000000     -0.70532834800
5D  5  2 10.00      0.00000000000      2.30000000000     -1.13769680300
6P  6  1  1.00      0.00000000000      2.30000000000     -0.17354414100
</PP_INFO>


<PP_HEADER>
   0                   Version Number
  Tl                   Element
   US                  Ultrasoft pseudopotential
    T                  Nonlinear Core Correction
SLA  PW   PSX  PSC     PBEsol  Exchange-Correlation functional
   13.00000000000      Z valence
 -144.52262759000      Total energy
    0.00000    0.00000 Suggested cutoff for wfc and rho
    2                  Max angular momentum component
  899                  Number of points in mesh
    3    6             Number of Wavefunctions, Number of Projectors
 Wavefunctions         nl  l   occ
                       6S  0  2.00
                       5D  2 10.00
                       6P  1  1.00
</PP_HEADER>


<PP_MESH>
  <PP_R>
  0.00000000000E+00  7.06426066205E-10  1.43073539342E-09  2.17338069855E-09
  2.93482615908E-09  3.71554770322E-09  4.51603330735E-09  5.33678330102E-09
  6.17831067971E-09  7.04114142541E-09  7.92581483542E-09  8.83288385944E-09
  9.76291544513E-09  1.07164908925E-08  1.16942062172E-08  1.26966725233E-08
  1.37245163847E-08  1.47783802373E-08  1.58589227804E-08  1.69668193881E-08
  1.81027625321E-08  1.92674622136E-08  2.04616464079E-08  2.16860615191E-08
  2.29414728464E-08  2.42286650627E-08  2.55484427051E-08  2.69016306776E-08
  2.82890747667E-08  2.97116421701E-08  3.11702220389E-08  3.26657260328E-08
  3.41990888905E-08  3.57712690138E-08  3.73832490664E-08  3.90360365883E-08
  4.07306646255E-08  4.24681923758E-08  4.42497058504E-08  4.60763185534E-08
  4.79491721771E-08  4.98694373160E-08  5.18383141984E-08  5.38570334363E-08
  5.59268567950E-08  5.80490779816E-08  6.02250234532E-08  6.24560532467E-08
  6.47435618283E-08  6.70889789654E-08  6.94937706200E-08  7.19594398651E-08
  7.44875278244E-08  7.70796146350E-08  7.97373204357E-08  8.24623063790E-08
  8.52562756700E-08  8.81209746302E-08  9.10581937899E-08  9.40697690066E-08
  9.71575826130E-08  1.00323564593E-07  1.03569693788E-07  1.06897999135E-07
  1.10310560933E-07  1.13809512145E-07  1.17397039728E-07  1.21075386004E-07
  1.24846850059E-07  1.28713789182E-07  1.32678620334E-07  1.36743821665E-07
  1.40911934058E-07  1.45185562718E-07  1.49567378803E-07  1.54060121090E-07
  1.58666597690E-07  1.63389687800E-07  1.68232343505E-07  1.73197591623E-07
  1.78288535596E-07  1.83508357429E-07  1.88860319681E-07  1.94347767502E-07
  1.99974130726E-07  2.05742926013E-07  2.11657759048E-07  2.17722326795E-07
  2.23940419805E-07  2.30315924589E-07  2.36852826045E-07  2.43555209949E-07
  2.50427265509E-07  2.57473287984E-07  2.64697681368E-07  2.72104961140E-07
  2.79699757093E-07  2.87486816221E-07  2.95471005689E-07  3.03657315875E-07
  3.12050863491E-07  3.20656894776E-07  3.29480788781E-07  3.38528060725E-07
  3.47804365450E-07  3.57315500946E-07  3.67067411984E-07  3.77066193825E-07
  3.87318096034E-07  3.97829526382E-07  4.08607054857E-07  4.19657417764E-07
  4.30987521940E-07  4.42604449069E-07  4.54515460108E-07  4.66727999827E-07
  4.79249701461E-07  4.92088391481E-07  5.05252094486E-07  5.18749038219E-07
  5.32587658710E-07  5.46776605546E-07  5.61324747282E-07  5.76241176979E-07
  5.91535217891E-07  6.07216429293E-07  6.23294612451E-07  6.39779816754E-07
  6.56682345990E-07  6.74012764791E-07  6.91781905233E-07  7.10000873607E-07
  7.28681057361E-07  7.47834132218E-07  7.67472069474E-07  7.87607143478E-07
  8.08251939307E-07  8.29419360631E-07  8.51122637777E-07  8.73375335999E-07
  8.96191363960E-07  9.19584982417E-07  9.43570813146E-07  9.68163848070E-07
  9.93379458638E-07  1.01923340543E-06  1.04574184799E-06  1.07292135498E-06
  1.10078891446E-06  1.12936194457E-06  1.15865830438E-06  1.18869630506E-06
  1.21949472136E-06  1.25107280328E-06  1.28345028814E-06  1.31664741294E-06
  1.35068492695E-06  1.38558410473E-06  1.42136675941E-06  1.45805525630E-06
  1.49567252691E-06  1.53424208326E-06  1.57378803258E-06  1.61433509237E-06
  1.65590860586E-06  1.69853455787E-06  1.74223959098E-06  1.78705102227E-06
  1.83299686035E-06  1.88010582286E-06  1.92840735443E-06  1.97793164509E-06
  2.02870964914E-06  2.08077310449E-06  2.13415455248E-06  2.18888735826E-06
  2.24500573161E-06  2.30254474835E-06  2.36154037224E-06  2.42202947745E-06
  2.48404987165E-06  2.54764031961E-06  2.61284056742E-06  2.67969136736E-06
  2.74823450336E-06  2.81851281710E-06  2.89057023484E-06  2.96445179478E-06
  3.04020367532E-06  3.11787322385E-06  3.19750898635E-06  3.27916073779E-06
  3.36287951315E-06  3.44871763940E-06  3.53672876816E-06  3.62696790926E-06
  3.71949146509E-06  3.81435726588E-06  3.91162460585E-06  4.01135428026E-06
  4.11360862340E-06  4.21845154756E-06  4.32594858298E-06  4.43616691881E-06
  4.54917544509E-06  4.66504479583E-06  4.78384739316E-06  4.90565749255E-06
  5.03055122929E-06  5.15860666603E-06  5.28990384159E-06  5.42452482097E-06
  5.56255374666E-06  5.70407689125E-06  5.84918271130E-06  5.99796190267E-06
  6.15050745721E-06  6.30691472084E-06  6.46728145320E-06  6.63170788872E-06
  6.80029679927E-06  6.97315355841E-06  7.15038620724E-06  7.33210552194E-06
  7.51842508299E-06  7.70946134619E-06  7.90533371541E-06  8.10616461727E-06
  8.31207957762E-06  8.52320730000E-06  8.73967974612E-06  8.96163221830E-06
  9.18920344407E-06  9.42253566285E-06  9.66177471486E-06  9.90707013232E-06
  1.01585752328E-05  1.04164472153E-05  1.06808472580E-05  1.09519406197E-05
  1.12298967426E-05  1.15148893581E-05  1.18070965961E-05  1.21067010956E-05
  1.24138901190E-05  1.27288556696E-05  1.30517946111E-05  1.33829087908E-05
  1.37224051659E-05  1.40704959326E-05  1.44273986591E-05  1.47933364210E-05
  1.51685379416E-05  1.55532377338E-05  1.59476762476E-05  1.63521000200E-05
  1.67667618289E-05  1.71919208515E-05  1.76278428259E-05  1.80748002177E-05
  1.85330723898E-05  1.90029457771E-05  1.94847140658E-05  1.99786783768E-05
  2.04851474539E-05  2.10044378567E-05  2.15368741587E-05  2.20827891498E-05
  2.26425240447E-05  2.32164286960E-05  2.38048618126E-05  2.44081911845E-05
  2.50267939122E-05  2.56610566425E-05  2.63113758103E-05  2.69781578861E-05
  2.76618196306E-05  2.83627883545E-05  2.90815021862E-05  2.98184103452E-05
  3.05739734230E-05  3.13486636711E-05  3.21429652963E-05  3.29573747629E-05
  3.37924011032E-05  3.46485662360E-05  3.55264052924E-05  3.64264669502E-05
  3.73493137774E-05  3.82955225832E-05  3.92656847790E-05  4.02604067478E-05
  4.12803102230E-05  4.23260326777E-05  4.33982277223E-05  4.44975655137E-05
  4.56247331738E-05  4.67804352190E-05  4.79653940009E-05  4.91803501571E-05
  5.04260630748E-05  5.17033113652E-05  5.30128933499E-05  5.43556275605E-05
  5.57323532495E-05  5.71439309151E-05  5.85912428396E-05  6.00751936398E-05
  6.15967108334E-05  6.31567454181E-05  6.47562724664E-05  6.63962917346E-05
  6.80778282883E-05  6.98019331425E-05  7.15696839190E-05  7.33821855193E-05
  7.52405708162E-05  7.71460013608E-05  7.90996681093E-05  8.11027921669E-05
  8.31566255516E-05  8.52624519759E-05  8.74215876499E-05  8.96353821038E-05
  9.19052190311E-05  9.42325171537E-05  9.66187311089E-05  9.90653523579E-05
  1.01573910119E-04  1.04145972322E-04  1.06783146589E-04  1.09487081241E-04
  1.12259466325E-04  1.15102034671E-04  1.18016562977E-04  1.21004872919E-04
  1.24068832287E-04  1.27210356155E-04  1.30431408080E-04  1.33734001321E-04
  1.37120200109E-04  1.40592120927E-04  1.44151933839E-04  1.47801863844E-04
  1.51544192267E-04  1.55381258186E-04  1.59315459890E-04  1.63349256384E-04
  1.67485168923E-04  1.71725782587E-04  1.76073747896E-04  1.80531782471E-04
  1.85102672729E-04  1.89789275625E-04  1.94594520438E-04  1.99521410602E-04
  2.04573025585E-04  2.09752522809E-04  2.15063139631E-04  2.20508195357E-04
  2.26091093325E-04  2.31815323028E-04  2.37684462296E-04  2.43702179532E-04
  2.49872236005E-04  2.56198488201E-04  2.62684890234E-04  2.69335496316E-04
  2.76154463293E-04  2.83146053241E-04  2.90314636131E-04  2.97664692561E-04
  3.05200816555E-04  3.12927718436E-04  3.20850227770E-04  3.28973296382E-04
  3.37302001455E-04  3.45841548701E-04  3.54597275615E-04  3.63574654811E-04
  3.72779297443E-04  3.82216956713E-04  3.91893531465E-04  4.01815069873E-04
  4.11987773221E-04  4.22417999781E-04  4.33112268783E-04  4.44077264494E-04
  4.55319840393E-04  4.66847023456E-04  4.78666018547E-04  4.90784212924E-04
  5.03209180851E-04  5.15948688340E-04  5.29010697995E-04  5.42403374000E-04
  5.56135087212E-04  5.70214420398E-04  5.84650173602E-04  5.99451369637E-04
  6.14627259734E-04  6.30187329318E-04  6.46141303939E-04  6.62499155350E-04
  6.79271107741E-04  6.96467644128E-04  7.14099512907E-04  7.32177734568E-04
  7.50713608590E-04  7.69718720497E-04  7.89204949102E-04  8.09184473934E-04
  8.29669782844E-04  8.50673679818E-04  8.72209292976E-04  8.94290082776E-04
  9.16929850431E-04  9.40142746533E-04  9.63943279898E-04  9.88346326634E-04
  1.01336713944E-03  1.03902135713E-03  1.06532501444E-03  1.09229455201E-03
  1.11994682667E-03  1.14829912199E-03  1.17736915909E-03  1.20717510768E-03
  1.23773559745E-03  1.26906972970E-03  1.30119708929E-03  1.33413775686E-03
  1.36791232139E-03  1.40254189310E-03  1.43804811659E-03  1.47445318441E-03
  1.51177985091E-03  1.55005144647E-03  1.58929189208E-03  1.62952571430E-03
  1.67077806058E-03  1.71307471498E-03  1.75644211429E-03  1.80090736453E-03
  1.84649825794E-03  1.89324329032E-03  1.94117167882E-03  1.99031338025E-03
  2.04069910978E-03  2.09236036012E-03  2.14532942125E-03  2.19963940054E-03
  2.25532424350E-03  2.31241875497E-03  2.37095862088E-03  2.43098043055E-03
  2.49252169957E-03  2.55562089323E-03  2.62031745058E-03  2.68665180908E-03
  2.75466542986E-03  2.82440082365E-03  2.89590157734E-03  2.96921238122E-03
  3.04437905694E-03  3.12144858612E-03  3.20046913971E-03  3.28149010814E-03
  3.36456213216E-03  3.44973713447E-03  3.53706835223E-03  3.62661037030E-03
  3.71841915534E-03  3.81255209085E-03  3.90906801296E-03  4.00802724727E-03
  4.10949164653E-03  4.21352462928E-03  4.32019121953E-03  4.42955808736E-03
  4.54169359064E-03  4.65666781770E-03  4.77455263117E-03  4.89542171291E-03
  5.01935061001E-03  5.14641678209E-03  5.27669964962E-03  5.41028064365E-03
  5.54724325664E-03  5.68767309469E-03  5.83165793101E-03  5.97928776081E-03
  6.13065485756E-03  6.28585383059E-03  6.44498168434E-03  6.60813787888E-03
  6.77542439216E-03  6.94694578367E-03  7.12280925989E-03  7.30312474120E-03
  7.48800493066E-03  7.67756538439E-03  7.87192458386E-03  8.07120400988E-03
  8.27552821860E-03  8.48502491928E-03  8.69982505419E-03  8.92006288040E-03
  9.14587605373E-03  9.37740571476E-03  9.61479657706E-03  9.85819701765E-03
  1.01077591697E-02  1.03636390178E-02  1.06259964950E-02  1.08949955834E-02
  1.11708044161E-02  1.14535953827E-02  1.17435452367E-02  1.20408352062E-02
  1.23456511070E-02  1.26581834592E-02  1.29786276055E-02  1.33071838340E-02
  1.36440575030E-02  1.39894591696E-02  1.43436047210E-02  1.47067155097E-02
  1.50790184917E-02  1.54607463687E-02  1.58521377328E-02  1.62534372165E-02
  1.66648956450E-02  1.70867701932E-02  1.75193245465E-02  1.79628290653E-02
  1.84175609545E-02  1.88838044362E-02  1.93618509279E-02  1.98519992242E-02
  2.03545556836E-02  2.08698344204E-02  2.13981575005E-02  2.19398551430E-02
  2.24952659267E-02  2.30647370013E-02  2.36486243047E-02  2.42472927857E-02
  2.48611166314E-02  2.54904795017E-02  2.61357747689E-02  2.67974057636E-02
  2.74757860267E-02  2.81713395679E-02  2.88845011308E-02  2.96157164647E-02
  3.03654426028E-02  3.11341481485E-02  3.19223135677E-02  3.27304314895E-02
  3.35590070139E-02  3.44085580276E-02  3.52796155276E-02  3.61727239531E-02
  3.70884415261E-02  3.80273405999E-02  3.89900080168E-02  3.99770454754E-02
  4.09890699063E-02  4.20267138575E-02  4.30906258905E-02  4.41814709848E-02
  4.52999309542E-02  4.64467048725E-02  4.76225095107E-02  4.88280797851E-02
  5.00641692162E-02  5.13315504003E-02  5.26310154918E-02  5.39633766988E-02
  5.53294667902E-02  5.67301396170E-02  5.81662706452E-02  5.96387575035E-02
  6.11485205440E-02  6.26965034179E-02  6.42836736648E-02  6.59110233178E-02
  6.75795695234E-02  6.92903551773E-02  7.10444495763E-02  7.28429490863E-02
  7.46869778282E-02  7.65776883799E-02  7.85162624972E-02  8.05039118519E-02
  8.25418787895E-02  8.46314371058E-02  8.67738928427E-02  8.89705851048E-02
  9.12228868963E-02  9.35322059791E-02  9.58999857528E-02  9.83277061569E-02
  1.00816884596E-01  1.03369076886E-01  1.05985878233E-01  1.08668924220E-01
  1.11419891841E-01  1.14240500538E-01  1.17132513284E-01  1.20097737682E-01
  1.23138027092E-01  1.26255281796E-01  1.29451450178E-01  1.32728529947E-01
  1.36088569387E-01  1.39533668629E-01  1.43065980974E-01  1.46687714232E-01
  1.50401132103E-01  1.54208555596E-01  1.58112364473E-01  1.62114998743E-01
  1.66218960181E-01  1.70426813898E-01  1.74741189939E-01  1.79164784929E-01
  1.83700363760E-01  1.88350761315E-01  1.93118884245E-01  1.98007712782E-01
  2.03020302602E-01  2.08159786738E-01  2.13429377534E-01  2.18832368656E-01
  2.24372137150E-01  2.30052145550E-01  2.35875944048E-01  2.41847172707E-01
  2.47969563739E-01  2.54246943838E-01  2.60683236571E-01  2.67282464829E-01
  2.74048753347E-01  2.80986331274E-01  2.88099534822E-01  2.95392809976E-01
  3.02870715269E-01  3.10537924636E-01  3.18399230332E-01  3.26459545929E-01
  3.34723909387E-01  3.43197486202E-01  3.51885572635E-01  3.60793599024E-01
  3.69927133174E-01  3.79291883842E-01  3.88893704301E-01  3.98738596003E-01
  4.08832712325E-01  4.19182362419E-01  4.29794015152E-01  4.40674303152E-01
  4.51830026955E-01  4.63268159250E-01  4.74995849243E-01  4.87020427122E-01
  4.99349408639E-01  5.11990499809E-01  5.24951601725E-01  5.38240815499E-01
  5.51866447321E-01  5.65837013654E-01  5.80161246559E-01  5.94848099145E-01
  6.09906751175E-01  6.25346614796E-01  6.41177340426E-01  6.57408822783E-01
  6.74051207072E-01  6.91114895325E-01  7.08610552903E-01  7.26549115161E-01
  7.44941794284E-01  7.63800086297E-01  7.83135778244E-01  8.02960955564E-01
  8.23288009637E-01  8.44129645534E-01  8.65498889955E-01  8.87409099374E-01
  9.09873968386E-01  9.32907538264E-01  9.56524205740E-01  9.80738731999E-01
  1.00556625191E+00  1.03102228348E+00  1.05712273755E+00  1.08388392777E+00
  1.11132258074E+00  1.13945584652E+00  1.16830130932E+00  1.19787699848E+00
  1.22820139977E+00  1.25929346694E+00  1.29117263354E+00  1.32385882508E+00
  1.35737247150E+00  1.39173451992E+00  1.42696644774E+00  1.46309027605E+00
  1.50012858344E+00  1.53810452004E+00  1.57704182205E+00  1.61696482655E+00
  1.65789848672E+00  1.69986838744E+00  1.74290076125E+00  1.78702250479E+00
  1.83226119558E+00  1.87864510929E+00  1.92620323736E+00  1.97496530517E+00
  2.02496179061E+00  2.07622394311E+00  2.12878380317E+00  2.18267422242E+00
  2.23792888413E+00  2.29458232427E+00  2.35266995307E+00  2.41222807719E+00
  2.47329392240E+00  2.53590565685E+00  2.60010241489E+00  2.66592432161E+00
  2.73341251783E+00  2.80260918586E+00  2.87355757589E+00  2.94630203297E+00
  3.02088802474E+00  3.09736216988E+00  3.17577226723E+00  3.25616732564E+00
  3.33859759464E+00  3.42311459584E+00  3.50977115511E+00  3.59862143562E+00
  3.68972097169E+00  3.78312670349E+00  3.87889701266E+00  3.97709175874E+00
  4.07777231666E+00  4.18100161503E+00  4.28684417554E+00  4.39536615322E+00
  4.50663537784E+00  4.62072139630E+00  4.73769551606E+00  4.85763084976E+00
  4.98060236089E+00  5.10668691065E+00  5.23596330598E+00  5.36851234884E+00
  5.50441688669E+00  5.64376186430E+00  5.78663437682E+00  5.93312372420E+00
  6.08332146707E+00  6.23732148391E+00  6.39522002973E+00  6.55711579627E+00
  6.72310997365E+00  6.89330631364E+00  7.06781119449E+00  7.24673368742E+00
  7.43018562484E+00  7.61828167015E+00  7.81113938953E+00  8.00887932532E+00
  8.21162507141E+00  8.41950335050E+00  8.63264409328E+00  8.85118051965E+00
  9.07524922200E+00  9.30499025055E+00  9.54054720092E+00  9.78206730389E+00
  1.00297015174E+01  1.02836046208E+01  1.05439353119E+01  1.08108563059E+01
  1.10845344369E+01  1.13651407628E+01  1.16528506717E+01  1.19478439917E+01
  1.22503051030E+01  1.25604230539E+01  1.28783916780E+01  1.32044097162E+01
  1.35386809403E+01  1.38814142808E+01  1.42328239571E+01  1.45931296117E+01
  1.49625564473E+01  1.53413353678E+01  1.57297031224E+01  1.61279024534E+01
  1.65361822486E+01  1.69547976959E+01  1.73840104438E+01  1.78240887640E+01
  1.82753077201E+01  1.87379493383E+01  1.92123027849E+01  1.96986645462E+01
  2.01973386140E+01  2.07086366760E+01  2.12328783101E+01  2.17703911843E+01
  2.23215112617E+01  2.28865830103E+01  2.34659596183E+01  2.40600032149E+01
  2.46690850968E+01  2.52935859600E+01  2.59338961378E+01  2.65904158449E+01
  2.72635554275E+01  2.79537356198E+01  2.86613878068E+01  2.93869542942E+01
  3.01308885847E+01  3.08936556615E+01  3.16757322787E+01  3.24776072597E+01
  3.32997818026E+01  3.41427697930E+01  3.50070981261E+01  3.58933070351E+01
  3.68019504294E+01  3.77335962408E+01  3.86888267781E+01  3.96682390917E+01
  4.06724453460E+01  4.17020732026E+01  4.27577662126E+01  4.38401842183E+01
  4.49500037663E+01  4.60879185299E+01  4.72546397430E+01  4.84508966441E+01
  4.96774369329E+01  5.09350272369E+01  5.22244535910E+01  5.35465219287E+01
  5.49020585857E+01  5.62919108165E+01  5.77169473241E+01  5.91780588026E+01
  6.06761584943E+01  6.22121827603E+01  6.37870916656E+01  6.54018695798E+01
  6.70575257914E+01  6.87550951396E+01  7.04956386604E+01  7.22802442503E+01
  7.41100273457E+01  7.59861316207E+01  7.79097297016E+01  7.98820238997E+01
  8.19042469632E+01  8.39776628472E+01  8.61035675043E+01  8.82832896939E+01
  9.05181918135E+01  9.28096707496E+01  9.51591587512E+01  9.75681243247E+01
  1.00038073152E+02  1.02570549032E+02  1.05167134843E+02  1.07829453538E+02
  1.10559169151E+02  1.13357987844E+02  1.16227658969E+02  1.19169976165E+02
  1.22186778475E+02  1.25279951499E+02  1.28451428572E+02  1.31703191968E+02
  1.35037274147E+02  1.38455759018E+02  1.41960783246E+02  1.45554537584E+02
  1.49239268246E+02  1.53017278310E+02  1.56890929153E+02
  </PP_R>
  <PP_RAB>
  6.97632533019E-10  7.15293184674E-10  7.33400917854E-10  7.51967050483E-10
  7.71003186996E-10  7.90521225599E-10  8.10533365703E-10  8.31052115544E-10
  8.52090300011E-10  8.73661068654E-10  8.95777903904E-10  9.18454629505E-10
  9.41705419147E-10  9.65544805331E-10  9.89987688450E-10  1.01504934610E-09
  1.04074544264E-09  1.06709203895E-09  1.09410560253E-09  1.12180301772E-09
  1.15020159632E-09  1.17931908836E-09  1.20917369322E-09  1.23978407100E-09
  1.27116935418E-09  1.30334915959E-09  1.33634360065E-09  1.37017329996E-09
  1.40485940219E-09  1.44042358727E-09  1.47688808399E-09  1.51427568384E-09
  1.55260975528E-09  1.59191425836E-09  1.63221375968E-09  1.67353344773E-09
  1.71589914866E-09  1.75933734241E-09  1.80387517928E-09  1.84954049685E-09
  1.89636183745E-09  1.94436846592E-09  1.99359038798E-09  2.04405836893E-09
  2.09580395289E-09  2.14885948256E-09  2.20325811935E-09  2.25903386419E-09
  2.31622157873E-09  2.37485700715E-09  2.43497679852E-09  2.49661852965E-09
  2.55982072863E-09  2.62462289889E-09  2.69106554391E-09  2.75919019249E-09
  2.82903942477E-09  2.90065689877E-09  2.97408737777E-09  3.04937675818E-09
  3.12657209834E-09  3.20572164784E-09  3.28687487772E-09  3.37008251140E-09
  3.45539655636E-09  3.54287033664E-09  3.63255852621E-09  3.72451718312E-09
  3.81880378450E-09  3.91547726257E-09  4.01459804138E-09  4.11622807465E-09
  4.22043088447E-09  4.32727160097E-09  4.43681700310E-09  4.54913556027E-09
  4.66429747526E-09  4.78237472801E-09  4.90344112064E-09  5.02757232360E-09
  5.15484592292E-09  5.28534146874E-09  5.41914052503E-09  5.55632672056E-09
  5.69698580117E-09  5.84120568335E-09  5.98907650923E-09  6.14069070289E-09
  6.29614302814E-09  6.45553064774E-09  6.61895318413E-09  6.78651278173E-09
  6.95831417074E-09  7.13446473262E-09  7.31507456721E-09  7.50025656152E-09
  7.69012646034E-09  7.88480293853E-09  8.08440767523E-09  8.28906542990E-09
  8.49890412029E-09  8.71405490242E-09  8.93465225253E-09  9.16083405115E-09
  9.39274166926E-09  9.63052005667E-09  9.87431783262E-09  1.01242873786E-08
  1.03805849339E-08  1.06433706926E-08  1.09128089044E-08  1.11890679771E-08
  1.14723205815E-08  1.17627437597E-08  1.20605190357E-08  1.23658325287E-08
  1.26788750695E-08  1.29998423200E-08  1.33289348952E-08  1.36663584885E-08
  1.40123240008E-08  1.43670476717E-08  1.47307512151E-08  1.51036619575E-08
  1.54860129803E-08  1.58780432653E-08  1.62799978443E-08  1.66921279519E-08
  1.71146911828E-08  1.75479516528E-08  1.79921801638E-08  1.84476543732E-08
  1.89146589670E-08  1.93934858385E-08  1.98844342699E-08  2.03878111200E-08
  2.09039310157E-08  2.14331165488E-08  2.19756984774E-08  2.25320159330E-08
  2.31024166320E-08  2.36872570935E-08  2.42869028617E-08  2.49017287348E-08
  2.55321189990E-08  2.61784676687E-08  2.68411787328E-08  2.75206664075E-08
  2.82173553945E-08  2.89316811472E-08  2.96640901424E-08  3.04150401596E-08
  3.11850005670E-08  3.19744526149E-08  3.27838897366E-08  3.36138178565E-08
  3.44647557068E-08  3.53372351514E-08  3.62318015182E-08  3.71490139405E-08
  3.80894457058E-08  3.90536846145E-08  4.00423333475E-08  4.10560098422E-08
  4.20953476796E-08  4.31609964797E-08  4.42536223075E-08  4.53739080899E-08
  4.65225540418E-08  4.77002781045E-08  4.89078163938E-08  5.01459236603E-08
  5.14153737616E-08  5.27169601452E-08  5.40514963450E-08  5.54198164895E-08
  5.68227758233E-08  5.82612512418E-08  5.97361418389E-08  6.12483694692E-08
  6.27988793243E-08  6.43886405232E-08  6.60186467184E-08  6.76899167170E-08
  6.94034951169E-08  7.11604529606E-08  7.29618884039E-08  7.48089274025E-08
  7.67027244160E-08  7.86444631292E-08  8.06353571919E-08  8.26766509777E-08
  8.47696203618E-08  8.69155735180E-08  8.91158517371E-08  9.13718302645E-08
  9.36849191601E-08  9.60565641800E-08  9.84882476794E-08  1.00981489540E-07
  1.03537848118E-07  1.06158921222E-07  1.08846347107E-07  1.11601805503E-07
  1.14427018660E-07  1.17323752429E-07  1.20293817362E-07  1.23339069847E-07
  1.26461413265E-07  1.29662799184E-07  1.32945228573E-07  1.36310753057E-07
  1.39761476200E-07  1.43299554814E-07  1.46927200316E-07  1.50646680100E-07
  1.54460318963E-07  1.58370500554E-07  1.62379668863E-07  1.66490329751E-07
  1.70705052515E-07  1.75026471493E-07  1.79457287714E-07  1.84000270582E-07
  1.88658259608E-07  1.93434166188E-07  1.98330975418E-07  2.03351747965E-07
  2.08499621973E-07  2.13777815033E-07  2.19189626186E-07  2.24738437991E-07
  2.30427718635E-07  2.36261024104E-07  2.42242000405E-07  2.48374385841E-07
  2.54662013354E-07  2.61108812915E-07  2.67718813984E-07  2.74496148026E-07
  2.81445051097E-07  2.88569866487E-07  2.95875047436E-07  3.03365159922E-07
  3.11044885509E-07  3.18919024274E-07  3.26992497811E-07  3.35270352304E-07
  3.43757761680E-07  3.52460030849E-07  3.61382599010E-07  3.70531043059E-07
  3.79911081072E-07  3.89528575878E-07  3.99389538724E-07  4.09500133033E-07
  4.19866678256E-07  4.30495653820E-07  4.41393703181E-07  4.52567637976E-07
  4.64024442277E-07  4.75771276960E-07  4.87815484178E-07  5.00164591953E-07
  5.12826318881E-07  5.25808578951E-07  5.39119486500E-07  5.52767361278E-07
  5.66760733651E-07  5.81108349932E-07  5.95819177848E-07  6.10902412146E-07
  6.26367480338E-07  6.42224048596E-07  6.58482027789E-07  6.75151579686E-07
  6.92243123298E-07  7.09767341397E-07  7.27735187188E-07  7.46157891162E-07
  7.65046968107E-07  7.84414224311E-07  8.04271764941E-07  8.24632001605E-07
  8.45507660114E-07  8.66911788434E-07  8.88857764842E-07  9.11359306288E-07
  9.34430476968E-07  9.58085697114E-07  9.82339752009E-07  1.00720780123E-06
  1.03270538811E-06  1.05884844947E-06  1.08565332559E-06  1.11313677038E-06
  1.14131596188E-06  1.17020851301E-06  1.19983248255E-06  1.23020638646E-06
  1.26134920940E-06  1.29328041666E-06  1.32601996628E-06  1.35958832155E-06
  1.39400646377E-06  1.42929590541E-06  1.46547870352E-06  1.50257747353E-06
  1.54061540337E-06  1.57961626799E-06  1.61960444419E-06  1.66060492590E-06
  1.70264333974E-06  1.74574596110E-06  1.78993973051E-06  1.83525227052E-06
  1.88171190294E-06  1.92934766655E-06  1.97818933526E-06  2.02826743671E-06
  2.07961327132E-06  2.13225893193E-06  2.18623732378E-06  2.24158218513E-06
  2.29832810831E-06  2.35651056138E-06  2.41616591025E-06  2.47733144148E-06
  2.54004538550E-06  2.60434694057E-06  2.67027629726E-06  2.73787466356E-06
  2.80718429065E-06  2.87824849930E-06  2.95111170696E-06  3.02581945550E-06
  3.10241843970E-06  3.18095653642E-06  3.26148283452E-06  3.34404766557E-06
  3.42870263526E-06  3.51550065571E-06  3.60449597852E-06  3.69574422864E-06
  3.78930243922E-06  3.88522908717E-06  3.98358412978E-06  4.08442904214E-06
  4.18782685562E-06  4.29384219720E-06  4.40254132994E-06  4.51399219432E-06
  4.62826445076E-06  4.74542952315E-06  4.86556064347E-06  4.98873289758E-06
  5.11502327215E-06  5.24451070277E-06  5.37727612330E-06  5.51340251645E-06
  5.65297496566E-06  5.79608070824E-06  5.94280918993E-06  6.09325212083E-06
  6.24750353266E-06  6.40565983756E-06  6.56781988839E-06  6.73408504045E-06
  6.90455921487E-06  7.07934896356E-06  7.25856353581E-06  7.44231494655E-06
  7.63071804640E-06  7.82389059343E-06  8.02195332678E-06  8.22503004209E-06
  8.43324766892E-06  8.64673635007E-06  8.86562952291E-06  9.09006400281E-06
  9.32018006862E-06  9.55612155036E-06  9.79803591916E-06  1.00460743794E-05
  1.03003919631E-05  1.05611476271E-05  1.08285043521E-05  1.11026292449E-05
  1.13836936424E-05  1.16718732189E-05  1.19673480962E-05  1.22703029556E-05
  1.25809271538E-05  1.28994148410E-05  1.32259650824E-05  1.35607819825E-05
  1.39040748128E-05  1.42560581425E-05  1.46169519726E-05  1.49869818735E-05
  1.53663791259E-05  1.57553808655E-05  1.61542302310E-05  1.65631765163E-05
  1.69824753261E-05  1.74123887357E-05  1.78531854552E-05  1.83051409967E-05
  1.87685378473E-05  1.92436656450E-05  1.97308213601E-05  2.02303094809E-05
  2.07424422036E-05  2.12675396280E-05  2.18059299569E-05  2.23579497019E-05
  2.29239438933E-05  2.35042662959E-05  2.40992796300E-05  2.47093557984E-05
  2.53348761185E-05  2.59762315609E-05  2.66338229936E-05  2.73080614327E-05
  2.79993682992E-05  2.87081756823E-05  2.94349266097E-05  3.01800753245E-05
  3.09440875688E-05  3.17274408751E-05  3.25306248648E-05  3.33541415540E-05
  3.41985056674E-05  3.50642449601E-05  3.59519005474E-05  3.68620272428E-05
  3.77951939052E-05  3.87519837942E-05  3.97329949345E-05  4.07388404901E-05
  4.17701491471E-05  4.28275655071E-05  4.39117504897E-05  4.50233817457E-05
  4.61631540811E-05  4.73317798904E-05  4.85299896030E-05  4.97585321388E-05
  5.10181753770E-05  5.23097066356E-05  5.36339331637E-05  5.49916826460E-05
  5.63838037200E-05  5.78111665068E-05  5.92746631546E-05  6.07752083964E-05
  6.23137401218E-05  6.38912199633E-05  6.55086338971E-05  6.71669928596E-05
  6.88673333791E-05  7.06107182238E-05  7.23982370660E-05  7.42310071631E-05
  7.61101740561E-05  7.80369122854E-05  8.00124261253E-05  8.20379503361E-05
  8.41147509364E-05  8.62441259943E-05  8.84274064383E-05  9.06659568900E-05
  9.29611765161E-05  9.53144999037E-05  9.77273979565E-05  1.00201378814E-04
  1.02737988796E-04  1.05338813365E-04  1.08005478121E-04  1.10739649817E-04
  1.13543037399E-04  1.16417393075E-04  1.19364513412E-04  1.22386240455E-04
  1.25484462883E-04  1.28661117185E-04  1.31918188873E-04  1.35257713724E-04
  1.38681779049E-04  1.42192525000E-04  1.45792145908E-04  1.49482891653E-04
  1.53267069071E-04  1.57147043397E-04  1.61125239741E-04  1.65204144605E-04
  1.69386307436E-04  1.73674342224E-04  1.78070929130E-04  1.82578816163E-04
  1.87200820899E-04  1.91939832242E-04  1.96798812229E-04  2.01780797880E-04
  2.06888903097E-04  2.12126320614E-04  2.17496323987E-04  2.23002269643E-04
  2.28647598976E-04  2.34435840502E-04  2.40370612059E-04  2.46455623074E-04
  2.52694676876E-04  2.59091673077E-04  2.65650610008E-04  2.72375587217E-04
  2.79270808036E-04  2.86340582200E-04  2.93589328550E-04  3.01021577787E-04
  3.08641975309E-04  3.16455284112E-04  3.24466387770E-04  3.32680293483E-04
  3.41102135209E-04  3.49737176872E-04  3.58590815657E-04  3.67668585374E-04
  3.76976159926E-04  3.86519356849E-04  3.96304140953E-04  4.06336628046E-04
  4.16623088758E-04  4.27169952463E-04  4.37983811294E-04  4.49071424265E-04
  4.60439721494E-04  4.72095808538E-04  4.84046970830E-04  4.96300678236E-04
  5.08864589722E-04  5.21746558142E-04  5.34954635144E-04  5.48497076208E-04
  5.62382345800E-04  5.76619122664E-04  5.91216305251E-04  6.06183017275E-04
  6.21528613417E-04  6.37262685175E-04  6.53395066856E-04  6.69935841723E-04
  6.86895348300E-04  7.04284186830E-04  7.22113225903E-04  7.40393609249E-04
  7.59136762703E-04  7.78354401345E-04  7.98058536826E-04  8.18261484871E-04
  8.38975872981E-04  8.60214648323E-04  8.81991085822E-04  9.04318796461E-04
  9.27211735786E-04  9.50684212629E-04  9.74750898052E-04  9.99426834518E-04
  1.02472744529E-03  1.05066854407E-03  1.07726634490E-03  1.10453747225E-03
  1.13249897149E-03  1.16116831944E-03  1.19056343540E-03  1.22070269226E-03
  1.25160492804E-03  1.28328945764E-03  1.31577608493E-03  1.34908511510E-03
  1.38323736739E-03  1.41825418806E-03  1.45415746376E-03  1.49096963522E-03