<PP_INFO>
Generated using Vanderbilt code, version   7  3  6                              
Author: kfg        Generation date:    3    2 2014                              
Automatically converted from original format                                    
    1        The Pseudo was generated with a Scalar-Relativistic Calculation
  2.00000000000E+00    Local Potential cutoff radius
nl pn  l   occ               Rcut            Rcut US             E pseu
5S  5  0  2.00      0.00000000000      1.45000000000     -5.88060743600
5P  5  1  6.00      0.00000000000      1.50000000000     -3.24310012100
6S  6  0  2.00      0.00000000000      1.45000000000     -0.47231555900
5D  5  2  3.90      0.00000000000      1.70000000000     -0.39155242900
6P  6  1  0.00      0.00000000000      1.50000000000     -0.13689874700
</PP_INFO>


<PP_HEADER>
   0                   Version Number
  W                    Element
   US                  Ultrasoft pseudopotential
    T                  Nonlinear Core Correction
SLA  PW   PSX  PSC     PBEsol  Exchange-Correlation functional
   14.00000000000      Z valence
 -158.10904562700      Total energy
    0.00000    0.00000 Suggested cutoff for wfc and rho
    3                  Max angular momentum component
  923                  Number of points in mesh
    5    8             Number of Wavefunctions, Number of Projectors
 Wavefunctions         nl  l   occ
                       5S  0  2.00
                       5P  1  6.00
                       6S  0  2.00
                       5D  2  3.90
                       6P  1  0.00
</PP_HEADER>


<PP_MESH>
  <PP_R>
  0.00000000000E+00  5.72578501080E-07  1.15494443254E-06  1.74726509684E-06
  2.34971065624E-06  2.96245418170E-06  3.58567170258E-06  4.21954225720E-06
  4.86424794432E-06  5.51997397540E-06  6.18690872784E-06  6.86524379909E-06
  7.55517406168E-06  8.25689771925E-06  8.97061636340E-06  9.69653503170E-06
  1.04348622665E-05  1.11858101750E-05  1.19495944900E-05  1.27264346318E-05
  1.35165537718E-05  1.43201788957E-05  1.51375408696E-05  1.59688745056E-05
  1.68144186300E-05  1.76744161512E-05  1.85491141297E-05  1.94387638494E-05
  2.03436208895E-05  2.12639451979E-05  2.22000011658E-05  2.31520577042E-05
  2.41203883204E-05  2.51052711971E-05  2.61069892721E-05  2.71258303195E-05
  2.81620870327E-05  2.92160571082E-05  3.02880433312E-05  3.13783536626E-05
  3.24873013275E-05  3.36152049051E-05  3.47623884202E-05  3.59291814364E-05
  3.71159191509E-05  3.83229424904E-05  3.95505982094E-05  4.07992389895E-05
  4.20692235411E-05  4.33609167062E-05  4.46746895633E-05  4.60109195339E-05
  4.73699904909E-05  4.87522928693E-05  5.01582237776E-05  5.15881871126E-05
  5.30425936752E-05  5.45218612882E-05  5.60264149166E-05  5.75566867894E-05
  5.91131165243E-05  6.06961512533E-05  6.23062457517E-05  6.39438625684E-05
  6.56094721592E-05  6.73035530214E-05  6.90265918316E-05  7.07790835856E-05
  7.25615317403E-05  7.43744483587E-05  7.62183542564E-05  7.80937791522E-05
  8.00012618191E-05  8.19413502401E-05  8.39146017651E-05  8.59215832710E-05
  8.79628713248E-05  9.00390523490E-05  9.21507227903E-05  9.42984892906E-05
  9.64829688619E-05  9.87047890627E-05  1.00964588179E-04  1.03263015408E-04
  1.05600731042E-04  1.07978406662E-04  1.10396725329E-04  1.12856381778E-04
  1.15358082622E-04  1.17902546550E-04  1.20490504538E-04  1.23122700056E-04
  1.25799889283E-04  1.28522841323E-04  1.31292338429E-04  1.34109176222E-04
  1.36974163926E-04  1.39888124596E-04  1.42851895358E-04  1.45866327644E-04
  1.48932287443E-04  1.52050655546E-04  1.55222327800E-04  1.58448215364E-04
  1.61729244974E-04  1.65066359207E-04  1.68460516749E-04  1.71912692679E-04
  1.75423878737E-04  1.78995083621E-04  1.82627333269E-04  1.86321671155E-04
  1.90079158592E-04  1.93900875032E-04  1.97787918381E-04  2.01741405311E-04
  2.05762471583E-04  2.09852272371E-04  2.14011982596E-04  2.18242797261E-04
  2.22545931799E-04  2.26922622416E-04  2.31374126451E-04  2.35901722735E-04
  2.40506711958E-04  2.45190417046E-04  2.49954183535E-04  2.54799379964E-04
  2.59727398264E-04  2.64739654160E-04  2.69837587574E-04  2.75022663046E-04
  2.80296370147E-04  2.85660223910E-04  2.91115765268E-04  2.96664561491E-04
  3.02308206641E-04  3.08048322030E-04  3.13886556679E-04  3.19824587803E-04
  3.25864121281E-04  3.32006892155E-04  3.38254665124E-04  3.44609235052E-04
  3.51072427485E-04  3.57646099173E-04  3.64332138603E-04  3.71132466547E-04
  3.78049036606E-04  3.85083835778E-04  3.92238885023E-04  3.99516239850E-04
  4.06917990901E-04  4.14446264556E-04  4.22103223543E-04  4.29891067558E-04
  4.37812033897E-04  4.45868398101E-04  4.54062474608E-04  4.62396617416E-04
  4.70873220765E-04  4.79494719818E-04  4.88263591365E-04  4.97182354533E-04
  5.06253571511E-04  5.15479848282E-04  5.24863835379E-04  5.34408228639E-04
  5.44115769981E-04  5.53989248195E-04  5.64031499739E-04  5.74245409558E-04
  5.84633911911E-04  5.95199991213E-04  6.05946682895E-04  6.16877074272E-04
  6.27994305436E-04  6.39301570151E-04  6.50802116776E-04  6.62499249195E-04
  6.74396327768E-04  6.86496770296E-04  6.98804053001E-04  7.11321711528E-04
  7.24053341957E-04  7.37002601840E-04  7.50173211249E-04  7.63568953845E-04
  7.77193677965E-04  7.91051297728E-04  8.05145794162E-04  8.19481216342E-04
  8.34061682557E-04  8.48891381494E-04  8.63974573437E-04  8.79315591497E-04
  8.94918842850E-04  9.10788810008E-04  9.26930052107E-04  9.43347206213E-04
  9.60044988656E-04  9.77028196387E-04  9.94301708351E-04  1.01187048690E-03
  1.02973957919E-03  1.04791411868E-03  1.06639932656E-03  1.08520051326E-03
  1.10432308002E-03  1.12377252036E-03  1.14355442175E-03  1.16367446713E-03
  1.18413843661E-03  1.20495220908E-03  1.22612176395E-03  1.24765318281E-03
  1.26955265123E-03  1.29182646050E-03  1.31448100945E-03  1.33752280630E-03
  1.36095847051E-03  1.38479473470E-03  1.40903844655E-03  1.43369657082E-03
  1.45877619131E-03  1.48428451292E-03  1.51022886368E-03  1.53661669691E-03
  1.56345559332E-03  1.59075326321E-03  1.61851754867E-03  1.64675642584E-03
  1.67547800720E-03  1.70469054392E-03  1.73440242818E-03  1.76462219563E-03
  1.79535852784E-03  1.82662025474E-03  1.85841635724E-03  1.89075596974E-03
  1.92364838278E-03  1.95710304572E-03  1.99112956942E-03  2.02573772907E-03
  2.06093746690E-03  2.09673889512E-03  2.13315229880E-03  2.17018813879E-03
  2.20785705478E-03  2.24616986832E-03  2.28513758594E-03  2.32477140230E-03
  2.36508270344E-03  2.40608307002E-03  2.44778428064E-03  2.49019831525E-03
  2.53333735860E-03  2.57721380369E-03  2.62184025537E-03  2.66722953396E-03
  2.71339467892E-03  2.76034895261E-03  2.80810584407E-03  2.85667907295E-03
  2.90608259338E-03  2.95633059805E-03  3.00743752223E-03  3.05941804795E-03
  3.11228710821E-03  3.16605989128E-03  3.22075184503E-03  3.27637868139E-03
  3.33295638089E-03  3.39050119721E-03  3.44902966185E-03  3.50855858890E-03
  3.56910507989E-03  3.63068652864E-03  3.69332062631E-03  3.75702536647E-03
  3.82181905026E-03  3.88772029164E-03  3.95474802277E-03  4.02292149942E-03
  4.09226030651E-03  4.16278436374E-03  4.23451393130E-03  4.30746961571E-03
  4.38167237573E-03  4.45714352837E-03  4.53390475504E-03  4.61197810775E-03
  4.69138601547E-03  4.77215129054E-03  4.85429713527E-03  4.93784714858E-03
  5.02282533276E-03  5.10925610040E-03  5.19716428139E-03  5.28657513005E-03
  5.37751433238E-03  5.47000801346E-03  5.56408274494E-03  5.65976555265E-03
  5.75708392443E-03  5.85606581796E-03  5.95673966881E-03  6.05913439864E-03
  6.16327942348E-03  6.26920466217E-03  6.37694054498E-03  6.48651802235E-03
  6.59796857377E-03  6.71132421683E-03  6.82661751640E-03  6.94388159403E-03
  7.06315013740E-03  7.18445741007E-03  7.30783826127E-03  7.43332813593E-03
  7.56096308486E-03  7.69077977512E-03  7.82281550052E-03  7.95710819237E-03
  8.09369643038E-03  8.23261945368E-03  8.37391717219E-03  8.51763017800E-03
  8.66379975707E-03  8.81246790110E-03  8.96367731957E-03  9.11747145202E-03
  9.27389448053E-03  9.43299134240E-03  9.59480774309E-03  9.75939016931E-03
  9.92678590242E-03  1.00970430320E-02  1.02702104695E-02  1.04463379628E-02
  1.06254761097E-02  1.08076763732E-02  1.09929910960E-02  1.11814735153E-02
  1.13731777785E-02  1.15681589586E-02  1.17664730698E-02  1.19681770840E-02
  1.21733289468E-02  1.23819875944E-02  1.25942129703E-02  1.28100660429E-02
  1.30296088225E-02  1.32529043795E-02  1.34800168625E-02  1.37110115163E-02
  1.39459547014E-02  1.41849139124E-02  1.44279577976E-02  1.46751561788E-02
  1.49265800713E-02  1.51823017044E-02  1.54423945419E-02  1.57069333035E-02
  1.59759939860E-02  1.62496538854E-02  1.65279916188E-02  1.68110871473E-02
  1.70990217988E-02  1.73918782914E-02  1.76897407569E-02  1.79926947656E-02
  1.83008273503E-02  1.86142270315E-02  1.89329838428E-02  1.92571893570E-02
  1.95869367119E-02  1.99223206377E-02  2.02634374837E-02  2.06103852460E-02
  2.09632635962E-02  2.13221739092E-02  2.16872192932E-02  2.20585046185E-02
  2.24361365484E-02  2.28202235690E-02  2.32108760212E-02  2.36082061318E-02
  2.40123280462E-02  2.44233578608E-02  2.48414136563E-02  2.52666155323E-02
  2.56990856408E-02  2.61389482224E-02  2.65863296409E-02  2.70413584203E-02
  2.75041652818E-02  2.79748831806E-02  2.84536473449E-02  2.89405953145E-02
  2.94358669800E-02  2.99396046234E-02  3.04519529588E-02  3.09730591740E-02
  3.15030729727E-02  3.20421466175E-02  3.25904349740E-02  3.31480955547E-02
  3.37152885648E-02  3.42921769478E-02  3.48789264326E-02  3.54757055810E-02
  3.60826858360E-02  3.67000415714E-02  3.73279501415E-02  3.79665919322E-02
  3.86161504131E-02  3.92768121897E-02  3.99487670574E-02  4.06322080557E-02
  4.13273315240E-02  4.20343371579E-02  4.27534280665E-02  4.34848108305E-02
  4.42286955622E-02  4.49852959651E-02  4.57548293961E-02  4.65375169270E-02
  4.73335834090E-02  4.81432575365E-02  4.89667719132E-02  4.98043631189E-02
  5.06562717772E-02  5.15227426252E-02  5.24040245830E-02  5.33003708260E-02
  5.42120388571E-02  5.51392905808E-02  5.60823923786E-02  5.70416151855E-02
  5.80172345675E-02  5.90095308013E-02  6.00187889544E-02  6.10452989670E-02
  6.20893557357E-02  6.31512591977E-02  6.42313144175E-02  6.53298316739E-02
  6.64471265496E-02  6.75835200220E-02  6.87393385548E-02  6.99149141923E-02
  7.11105846547E-02  7.23266934350E-02  7.35635898977E-02  7.48216293791E-02
  7.61011732898E-02  7.74025892178E-02  7.87262510349E-02  8.00725390034E-02
  8.14418398859E-02  8.28345470559E-02  8.42510606113E-02  8.56917874890E-02
  8.71571415820E-02  8.86475438582E-02  9.01634224812E-02  9.17052129338E-02
  9.32733581423E-02  9.48683086047E-02  9.64905225193E-02  9.81404659168E-02
  9.98186127940E-02  1.01525445250E-01  1.03261453625E-01  1.05027136640E-01
  1.06823001542E-01  1.08649564248E-01  1.10507349495E-01  1.12396890987E-01
  1.14318731555E-01  1.16273423304E-01  1.18261527781E-01  1.20283616130E-01
  1.22340269257E-01  1.24432077998E-01  1.26559643291E-01  1.28723576343E-01
  1.30924498811E-01  1.33163042977E-01  1.35439851931E-01  1.37755579756E-01
  1.40110891717E-01  1.42506464449E-01  1.44942986153E-01  1.47421156796E-01
  1.49941688307E-01  1.52505304786E-01  1.55112742711E-01  1.57764751149E-01
  1.60462091970E-01  1.63205540068E-01  1.65995883582E-01  1.68833924124E-01
  1.71720477008E-01  1.74656371486E-01  1.77642450982E-01  1.80679573340E-01
  1.83768611066E-01  1.86910451581E-01  1.90105997474E-01  1.93356166765E-01
  1.96661893164E-01  2.00024126342E-01  2.03443832204E-01  2.06921993165E-01
  2.10459608433E-01  2.14057694298E-01  2.17717284418E-01  2.21439430125E-01
  2.25225200717E-01  2.29075683775E-01  2.32991985466E-01  2.36975230870E-01
  2.41026564294E-01  2.45147149609E-01  2.49338170580E-01  2.53600831204E-01
  2.57936356064E-01  2.62345990670E-01  2.66831001825E-01  2.71392677987E-01
  2.76032329636E-01  2.80751289655E-01  2.85550913710E-01  2.90432580640E-01
  2.95397692853E-01  3.00447676729E-01  3.05583983033E-01  3.10808087324E-01
  3.16121490387E-01  3.21525718661E-01  3.27022324674E-01  3.32612887496E-01
  3.38299013187E-01  3.44082335261E-01  3.49964515155E-01  3.55947242705E-01
  3.62032236633E-01  3.68221245039E-01  3.74516045907E-01  3.80918447611E-01
  3.87430289436E-01  3.94053442110E-01  4.00789808335E-01  4.07641323339E-01
  4.14609955430E-01  4.21697706562E-01  4.28906612907E-01  4.36238745445E-01
  4.43696210556E-01  4.51281150626E-01  4.58995744660E-01  4.66842208913E-01
  4.74822797521E-01  4.82939803154E-01  4.91195557670E-01  4.99592432788E-01
  5.08132840767E-01  5.16819235102E-01  5.25654111224E-01  5.34640007224E-01
  5.43779504575E-01  5.53075228878E-01  5.62529850615E-01  5.72146085916E-01
  5.81926697338E-01  5.91874494663E-01  6.01992335700E-01  6.12283127108E-01
  6.22749825234E-01  6.33395436957E-01  6.44223020555E-01  6.55235686583E-01
  6.66436598768E-01  6.77828974915E-01  6.89416087832E-01  7.01201266273E-01
  7.13187895893E-01  7.25379420217E-01  7.37779341635E-01  7.50391222404E-01
  7.63218685673E-01  7.76265416525E-01  7.89535163032E-01  8.03031737337E-01
  8.16759016743E-01  8.30720944833E-01  8.44921532598E-01  8.59364859592E-01
  8.74055075104E-01  8.88996399348E-01  9.04193124678E-01  9.19649616819E-01
  9.35370316121E-01  9.51359738839E-01  9.67622478422E-01  9.84163206842E-01
  1.00098667593E+00  1.01809771874E+00  1.03550125095E+00  1.05320227226E+00
  1.07120586782E+00  1.08951720971E+00  1.10814155845E+00  1.12708426443E+00
  1.14635076954E+00  1.16594660866E+00  1.18587741130E+00  1.20614890320E+00
  1.22676690796E+00  1.24773734874E+00  1.26906624993E+00  1.29075973893E+00
  1.31282404784E+00  1.33526551532E+00  1.35809058837E+00  1.38130582419E+00
  1.40491789206E+00  1.42893357528E+00  1.45335977309E+00  1.47820350266E+00
  1.50347190112E+00  1.52917222758E+00  1.55531186526E+00  1.58189832356E+00
  1.60893924026E+00  1.63644238369E+00  1.66441565498E+00  1.69286709030E+00
  1.72180486320E+00  1.75123728694E+00  1.78117281688E+00  1.81162005294E+00
  1.84258774200E+00  1.87408478049E+00  1.90612021689E+00  1.93870325437E+00
  1.97184325340E+00  2.00554973446E+00  2.03983238078E+00  2.07470104109E+00
  2.11016573249E+00  2.14623664329E+00  2.18292413596E+00  2.22023875013E+00
  2.25819120555E+00  2.29679240522E+00  2.33605343853E+00  2.37598558441E+00
  2.41660031460E+00  2.45790929692E+00  2.49992439863E+00  2.54265768988E+00
  2.58612144710E+00  2.63032815659E+00  2.67529051808E+00  2.72102144840E+00
  2.76753408514E+00  2.81484179050E+00  2.86295815505E+00  2.91189700171E+00
  2.96167238965E+00  3.01229861838E+00  3.06379023183E+00  3.11616202256E+00
  3.16942903595E+00  3.22360657460E+00  3.27871020267E+00  3.33475575035E+00
  3.39175931845E+00  3.44973728299E+00  3.50870629992E+00  3.56868330990E+00
  3.62968554316E+00  3.69173052446E+00  3.75483607812E+00  3.81902033315E+00
  3.88430172845E+00  3.95069901809E+00  4.01823127674E+00  4.08691790509E+00
  4.15677863550E+00  4.22783353760E+00  4.30010302408E+00  4.37360785657E+00
  4.44836915159E+00  4.52440838661E+00  4.60174740624E+00  4.68040842846E+00
  4.76041405108E+00  4.84178725817E+00  4.92455142666E+00  5.00873033311E+00
  5.09434816048E+00  5.18142950512E+00  5.26999938381E+00  5.36008324098E+00
  5.45170695595E+00  5.54489685047E+00  5.63967969617E+00  5.73608272234E+00
  5.83413362371E+00  5.93386056838E+00  6.03529220600E+00  6.13845767591E+00
  6.24338661554E+00  6.35010916896E+00  6.45865599548E+00  6.56905827851E+00
  6.68134773450E+00  6.79555662202E+00  6.91171775108E+00  7.02986449252E+00
  7.15003078763E+00  7.27225115784E+00  7.39656071471E+00  7.52299516997E+00
  7.65159084578E+00  7.78238468521E+00  7.91541426278E+00  8.05071779532E+00
  8.18833415292E+00  8.32830287009E+00  8.47066415714E+00  8.61545891171E+00
  8.76272873053E+00  8.91251592138E+00  9.06486351520E+00  9.21981527853E+00
  9.37741572599E+00  9.53771013316E+00  9.70074454950E+00  9.86656581167E+00
  1.00352215569E+01  1.02067602367E+01  1.03812311308E+01  1.05586843614E+01
  1.07391709073E+01  1.09227426188E+01  1.11094522325E+01  1.12993533865E+01
  1.14925006357E+01  1.16889494675E+01  1.18887563180E+01  1.20919785877E+01
  1.22986746585E+01  1.25089039102E+01  1.27227267375E+01  1.29402045677E+01
  1.31613998778E+01  1.33863762131E+01  1.36151982048E+01  1.38479315892E+01
  1.40846432259E+01  1.43254011177E+01  1.45702744297E+01  1.48193335091E+01
  1.50726499060E+01  1.53302963931E+01  1.55923469874E+01  1.58588769708E+01
  1.61299629123E+01  1.64056826897E+01  1.66861155119E+01  1.69713419418E+01
  1.72614439194E+01  1.75565047855E+01  1.78566093053E+01  1.81618436930E+01
  1.84722956366E+01  1.87880543229E+01  1.91092104632E+01  1.94358563196E+01
  1.97680857310E+01  2.01059941406E+01  2.04496786228E+01  2.07992379116E+01
  2.11547724286E+01  2.15163843119E+01  2.18841774457E+01  2.22582574899E+01
  2.26387319103E+01  2.30257100100E+01  2.34193029602E+01  2.38196238326E+01
  2.42267876316E+01  2.46409113275E+01  2.50621138901E+01  2.54905163226E+01
  2.59262416968E+01  2.63694151881E+01  2.68201641118E+01  2.72786179593E+01
  2.77449084355E+01  2.82191694966E+01  2.87015373887E+01  2.91921506867E+01
  2.96911503343E+01  3.01986796844E+01  3.07148845405E+01  3.12399131982E+01
  3.17739164881E+01  3.23170478189E+01  3.28694632219E+01  3.34313213951E+01
  3.40027837498E+01  3.45840144558E+01  3.51751804896E+01  3.57764516817E+01
  3.63880007656E+01  3.70100034277E+01  3.76426383572E+01  3.82860872980E+01
  3.89405351003E+01  3.96061697745E+01  4.02831825445E+01  4.09717679029E+01
  4.16721236670E+01  4.23844510355E+01  4.31089546462E+01  4.38458426350E+01
  4.45953266956E+01  4.53576221402E+01  4.61329479615E+01  4.69215268957E+01
  4.77235854863E+01  4.85393541491E+01  4.93690672386E+01  5.02129631155E+01
  5.10712842147E+01  5.19442771151E+01  5.28321926108E+01  5.37352857828E+01
  5.46538160721E+01  5.55880473549E+01  5.65382480175E+01  5.75046910344E+01
  5.84876540459E+01  5.94874194382E+01  6.05042744247E+01  6.15385111279E+01
  6.25904266643E+01  6.36603232286E+01  6.47485081816E+01  6.58552941376E+01
  6.69809990550E+01  6.81259463268E+01  6.92904648743E+01  7.04748892412E+01
  7.16795596897E+01  7.29048222982E+01  7.41510290610E+01  7.54185379892E+01
  7.67077132135E+01  7.80189250892E+01  7.93525503019E+01  8.07089719764E+01
  8.20885797864E+01  8.34917700665E+01  8.49189459261E+01  8.63705173652E+01
  8.78469013923E+01  8.93485221439E+01  9.08758110065E+01  9.24292067407E+01
  9.40091556070E+01  9.56161114943E+01  9.72505360497E+01  9.89128988119E+01
  1.00603677345E+02  1.02323357378E+02  1.04072432942E+02  1.05851406510E+02
  1.07660789150E+02  1.09501100660E+02  1.11372869727E+02  1.13276634074E+02
  1.15212940616E+02  1.17182345615E+02  1.19185414845E+02  1.21222723747E+02
  1.23294857602E+02  1.25402411694E+02  1.27545991481E+02  1.29726212773E+02
  1.31943701905E+02  1.34199095919E+02  1.36493042747E+02  1.38826201394E+02
  1.41199242131E+02  1.43612846688E+02  1.46067708447E+02  1.48564532641E+02
  1.51104036561E+02  1.53686949756E+02  1.56314014247E+02  1.58985984739E+02
  1.61703628838E+02  1.64467727269E+02  1.67279074106E+02  1.70138476994E+02
  1.73046757383E+02  1.76004750767E+02  1.79013306919E+02  1.82073290140E+02
  1.85185579503E+02  1.88351069110E+02  1.91570668344E+02  1.94845302133E+02
  1.98175911217E+02  2.01563452415E+02  2.05008898902E+02
  </PP_R>
  <PP_RAB>
  5.67739848068E-07  5.77444568426E-07  5.87315177433E-07  5.97354510727E-07
  6.07565452411E-07  6.17950935894E-07  6.28513944722E-07  6.39257513445E-07
  6.50184728481E-07  6.61298729007E-07  6.72602707862E-07  6.84099912460E-07
  6.95793645724E-07  7.07687267039E-07  7.19784193211E-07  7.32087899453E-07
  7.44601920382E-07  7.57329851035E-07  7.70275347898E-07  7.83442129964E-07
  7.96833979793E-07  8.10454744606E-07  8.24308337383E-07  8.38398737995E-07
  8.52729994340E-07  8.67306223512E-07  8.82131612978E-07  8.97210421787E-07
  9.12546981789E-07  9.28145698879E-07  9.44011054269E-07  9.60147605767E-07
  9.76559989093E-07  9.93252919206E-07  1.01023119166E-06  1.02749968399E-06
  1.04506335710E-06  1.06292725668E-06  1.08109651470E-06  1.09957635083E-06
  1.11837207396E-06  1.13748908375E-06  1.15693287214E-06  1.17670902496E-06
  1.19682322351E-06  1.21728124621E-06  1.23808897026E-06  1.25925237331E-06
  1.28077753521E-06  1.30267063970E-06  1.32493797626E-06  1.34758594186E-06
  1.37062104283E-06  1.39404989670E-06  1.41787923413E-06  1.44211590083E-06
  1.46676685951E-06  1.49183919194E-06  1.51734010089E-06  1.54327691230E-06
  1.56965707729E-06  1.59648817440E-06  1.62377791166E-06  1.65153412889E-06
  1.67976479992E-06  1.70847803487E-06  1.73768208250E-06  1.76738533257E-06
  1.79759631824E-06  1.82832371855E-06  1.85957636089E-06  1.89136322353E-06
  1.92369343822E-06  1.95657629282E-06  1.99002123392E-06  2.02403786961E-06
  2.05863597222E-06  2.09382548110E-06  2.12961650553E-06  2.16601932757E-06
  2.20304440505E-06  2.24070237456E-06  2.27900405449E-06  2.31796044820E-06
  2.35758274708E-06  2.39788233387E-06  2.43887078585E-06  2.48055987821E-06
  2.52296158743E-06  2.56608809468E-06  2.60995178940E-06  2.65456527275E-06
  2.69994136134E-06  2.74609309084E-06  2.79303371974E-06  2.84077673318E-06
  2.88933584681E-06  2.93872501072E-06  2.98895841345E-06  3.04005048610E-06
  3.09201590642E-06  3.14486960308E-06  3.19862675993E-06  3.25330282034E-06
  3.30891349170E-06  3.36547474988E-06  3.42300284382E-06  3.48151430025E-06
  3.54102592836E-06  3.60155482470E-06  3.66311837805E-06  3.72573427443E-06
  3.78942050216E-06  3.85419535708E-06  3.92007744774E-06  3.98708570080E-06
  4.05523936642E-06  4.12455802385E-06  4.19506158698E-06  4.26677031012E-06
  4.33970479381E-06  4.41388599071E-06  4.48933521164E-06  4.56607413171E-06
  4.64412479651E-06  4.72350962851E-06  4.80425143341E-06  4.88637340679E-06
  4.96989914069E-06  5.05485263044E-06  5.14125828153E-06  5.22914091665E-06
  5.31852578276E-06  5.40943855841E-06  5.50190536108E-06  5.59595275469E-06
  5.69160775724E-06  5.78889784857E-06  5.88785097823E-06  5.98849557353E-06
  6.09086054774E-06  6.19497530831E-06  6.30086976542E-06  6.40857434048E-06
  6.51811997494E-06  6.62953813913E-06  6.74286084135E-06  6.85812063700E-06
  6.97535063800E-06  7.09458452227E-06  7.21585654338E-06  7.33920154044E-06
  7.46465494808E-06  7.59225280665E-06  7.72203177253E-06  7.85402912871E-06
  7.98828279547E-06  8.12483134130E-06  8.26371399396E-06  8.40497065173E-06
  8.54864189493E-06  8.69476899753E-06  8.84339393900E-06  8.99455941643E-06
  9.14830885672E-06  9.30468642913E-06  9.46373705789E-06  9.62550643517E-06
  9.79004103419E-06  9.95738812256E-06  1.01275957758E-05  1.03007128914E-05
  1.04767892025E-05  1.06558752924E-05  1.08380226090E-05  1.10232834798E-05
  1.12117111266E-05  1.14033596811E-05  1.15982842002E-05  1.17965406819E-05
  1.19981860814E-05  1.22032783277E-05  1.24118763396E-05  1.26240400435E-05
  1.28398303897E-05  1.30593093708E-05  1.32825400387E-05  1.35095865234E-05
  1.37405140509E-05  1.39753889621E-05  1.42142787322E-05  1.44572519895E-05
  1.47043785355E-05  1.49557293649E-05  1.52113766860E-05  1.54713939412E-05
  1.57358558286E-05  1.60048383228E-05  1.62784186973E-05  1.65566755466E-05
  1.68396888083E-05  1.71275397868E-05  1.74203111761E-05  1.77180870836E-05
  1.80209530547E-05  1.83289960969E-05  1.86423047049E-05  1.89609688864E-05
  1.92850801873E-05  1.96147317186E-05  1.99500181828E-05  2.02910359011E-05
  2.06378828414E-05  2.09906586460E-05  2.13494646607E-05  2.17144039635E-05
  2.20855813944E-05  2.24631035854E-05  2.28470789913E-05  2.32376179210E-05
  2.36348325686E-05  2.40388370463E-05  2.44497474167E-05  2.48676817264E-05
  2.52927600398E-05  2.57251044738E-05  2.61648392324E-05  2.66120906431E-05
  2.70669871925E-05  2.75296595635E-05  2.80002406729E-05  2.84788657097E-05
  2.89656721735E-05  2.94607999145E-05  2.99643911731E-05  3.04765906215E-05
  3.09975454046E-05  3.15274051827E-05  3.20663221743E-05  3.26144511996E-05
  3.31719497257E-05  3.37389779111E-05  3.43156986519E-05  3.49022776289E-05
  3.54988833548E-05  3.61056872231E-05  3.67228635566E-05  3.73505896581E-05
  3.79890458613E-05  3.86384155823E-05  3.92988853724E-05  3.99706449718E-05
  4.06538873640E-05  4.13488088314E-05  4.20556090114E-05  4.27744909541E-05
  4.35056611803E-05  4.42493297410E-05  4.50057102780E-05  4.57750200846E-05
  4.65574801687E-05  4.73533153160E-05  4.81627541544E-05  4.89860292200E-05
  4.98233770240E-05  5.06750381200E-05  5.15412571739E-05  5.24222830336E-05
  5.33183688008E-05  5.42297719037E-05  5.51567541705E-05  5.60995819056E-05
  5.70585259649E-05  5.80338618346E-05  5.90258697099E-05  6.00348345752E-05
  6.10610462869E-05  6.21047996555E-05  6.31663945313E-05  6.42461358900E-05
  6.53443339202E-05  6.64613041132E-05  6.75973673527E-05  6.87528500078E-05
  6.99280840262E-05  7.11234070301E-05  7.23391624125E-05  7.35756994364E-05
  7.48333733350E-05  7.61125454137E-05  7.74135831539E-05  7.87368603184E-05
  8.00827570593E-05  8.14516600267E-05  8.28439624798E-05  8.42600644002E-05
  8.57003726067E-05  8.71653008718E-05  8.86552700411E-05  9.01707081540E-05
  9.17120505664E-05  9.32797400762E-05  9.48742270504E-05  9.64959695540E-05
  9.81454334825E-05  9.98230926948E-05  1.01529429150E-04  1.03264933045E-04
  1.05030102958E-04  1.06825445986E-04  1.08651477899E-04  1.10508723278E-04
  1.12397715675E-04  1.14318997760E-04  1.16273121482E-04  1.18260648221E-04
  1.20282148957E-04  1.22338204426E-04  1.24429405293E-04  1.26556352322E-04
  1.28719656541E-04  1.30919939426E-04  1.33157833077E-04  1.35433980397E-04
  1.37749035278E-04  1.40103662792E-04  1.42498539377E-04  1.44934353034E-04
  1.47411803527E-04  1.49931602579E-04  1.52494474078E-04  1.55101154289E-04
  1.57752392060E-04  1.60448949041E-04  1.63191599900E-04  1.65981132548E-04
  1.68818348364E-04  1.71704062424E-04  1.74639103738E-04  1.77624315488E-04
  1.80660555266E-04  1.83748695326E-04  1.86889622831E-04  1.90084240107E-04
  1.93333464908E-04  1.96638230672E-04  1.99999486794E-04  2.03418198899E-04
  2.06895349116E-04  2.10431936363E-04  2.14028976634E-04  2.17687503287E-04
  2.21408567348E-04  2.25193237806E-04  2.29042601924E-04  2.32957765549E-04
  2.36939853432E-04  2.40990009550E-04  2.45109397434E-04  2.49299200505E-04
  2.53560622413E-04  2.57894887380E-04  2.62303240558E-04  2.66786948382E-04
  2.71347298933E-04  2.75985602312E-04  2.80703191014E-04  2.85501420312E-04
  2.90381668642E-04  2.95345338007E-04  3.00393854372E-04  3.05528668079E-04
  3.10751254260E-04  3.16063113263E-04  3.21465771082E-04  3.26960779797E-04
  3.32549718016E-04  3.38234191335E-04  3.44015832792E-04  3.49896303340E-04
  3.55877292326E-04  3.61960517971E-04  3.68147727868E-04  3.74440699484E-04
  3.80841240668E-04  3.87351190170E-04  3.93972418173E-04  4.00706826828E-04
  4.07556350801E-04  4.14522957827E-04  4.21608649277E-04  4.28815460734E-04
  4.36145462574E-04  4.43600760566E-04  4.51183496473E-04  4.58895848668E-04
  4.66740032759E-04  4.74718302231E-04  4.82832949084E-04  4.91086304500E-04
  4.99480739509E-04  5.08018665669E-04  5.16702535761E-04  5.25534844492E-04
  5.34518129215E-04  5.43654970654E-04  5.52947993645E-04  5.62399867894E-04
  5.72013308743E-04  5.81791077947E-04  5.91735984469E-04  6.01850885288E-04
  6.12138686221E-04  6.22602342753E-04  6.33244860890E-04  6.44069298022E-04
  6.55078763800E-04  6.66276421030E-04  6.77665486583E-04  6.89249232317E-04
  7.01030986018E-04  7.13014132356E-04  7.25202113856E-04  7.37598431890E-04
  7.50206647681E-04  7.63030383325E-04  7.76073322832E-04  7.89339213187E-04
  8.02831865424E-04  8.16555155721E-04  8.30513026512E-04  8.44709487625E-04
  8.59148617428E-04  8.73834564004E-04  8.88771546340E-04  9.03963855543E-04
  9.19415856069E-04  9.35131986980E-04  9.51116763214E-04  9.67374776890E-04
  9.83910698620E-04  1.00072927885E-03  1.01783534924E-03  1.03523382403E-03
  1.05292970147E-03  1.07092806523E-03  1.08923408591E-03  1.10785302246E-03
  1.12679022374E-03  1.14605113005E-03  1.16564127467E-03  1.18556628548E-03
  1.20583188654E-03  1.22644389976E-03  1.24740824659E-03  1.26873094966E-03
  1.29041813459E-03  1.31247603168E-03  1.33491097773E-03  1.35772941787E-03
  1.38093790741E-03  1.40454311368E-03  1.42855181801E-03  1.45297091763E-03
  1.47780742768E-03  1.50306848321E-03  1.52876134122E-03  1.55489338279E-03
  1.58147211514E-03  1.60850517383E-03  1.63600032492E-03  1.66396546725E-03
  1.69240863466E-03  1.72133799832E-03  1.75076186908E-03  1.78068869985E-03
  1.81112708802E-03  1.84208577795E-03  1.87357366349E-03  1.90559979048E-03
  1.93817335942E-03  1.97130372805E-03  2.00500041411E-03  2.03927309798E-03
  2.07413162555E-03  2.10958601101E-03  2.14564643970E-03  2.18232327109E-03
  2.21962704173E-03  2.25756846827E-03  2.29615845054E-03  2.33540807470E-03
  2.37532861641E-03  2.41593154407E-03  2.45722852211E-03  2.49923141435E-03
  2.54195228742E-03  2.58540341419E-03  2.62959727733E-03  2.67454657288E-03
  2.72026421391E-03  2.76676333421E-03  2.81405729208E-03  2.86215967415E-03
  2.91108429931E-03  2.96084522266E-03  3.01145673954E-03  3.06293338968E-03
  3.11528996130E-03  3.16854149545E-03  3.22270329026E-03  3.27779090535E-03
  3.33382016635E-03  3.39080716937E-03  3.44876828567E-03  3.50772016637E-03
  3.56767974719E-03  3.62866425337E-03  3.69069120457E-03  3.75377841993E-03
  3.81794402320E-03  3.88320644790E-03  3.94958444267E-03  4.01709707662E-03
  4.08576374483E-03  4.15560417390E-03  4.22663842764E-03  4.29888691280E-03
  4.37237038499E-03  4.44710995459E-03  4.52312709281E-03  4.60044363793E-03
  4.67908180148E-03  4.75906417468E-03  4.84041373493E-03  4.92315385238E-03
  5.00730829667E-03  5.09290124374E-03  5.17995728278E-03  5.26850142331E-03
  5.35855910234E-03  5.45015619172E-03  5.54331900551E-03  5.63807430758E-03
  5.73444931929E-03  5.83247172733E-03  5.93216969163E-03  6.03357185349E-03