<PP_INFO>
Generated using Vanderbilt code, version   7  3  6                              
Author: kfg        Generation date:   22    9   15                              
Automatically converted from original format                                    
    1        The Pseudo was generated with a Scalar-Relativistic Calculation
  1.80000000000E+00    Local Potential cutoff radius
nl pn  l   occ               Rcut            Rcut US             E pseu
4S  4  0  2.00      0.00000000000      1.80000000000     -3.52417907000
4P  4  1  6.00      0.00000000000      2.00000000000     -2.04971310500
5S  5  0  2.00      0.00000000000      1.80000000000     -0.30281801900
4D  4  2  1.00      0.00000000000      2.20000000000     -0.18569711200
5P  5  1  0.00      0.00000000000      2.00000000000     -0.10468826100
</PP_INFO>


<PP_HEADER>
   0                   Version Number
  Y                    Element
   US                  Ultrasoft pseudopotential
    T                  Nonlinear Core Correction
SLA  PW   PSX  PSC     PBEsol  Exchange-Correlation functional
   11.00000000000      Z valence
  -92.29240253440      Total energy
    0.00000    0.00000 Suggested cutoff for wfc and rho
    2                  Max angular momentum component
  885                  Number of points in mesh
    5    6             Number of Wavefunctions, Number of Projectors
 Wavefunctions         nl  l   occ
                       4S  0  2.00
                       4P  1  6.00
                       5S  0  2.00
                       4D  2  1.00
                       5P  1  0.00
</PP_HEADER>


<PP_MESH>
  <PP_R>
  0.00000000000E+00  1.08643100205E-06  2.19143302584E-06  3.31532351708E-06
  4.45842534774E-06  5.62106690887E-06  6.80358220489E-06  8.00631094956E-06
  9.22959866358E-06  1.04737967738E-05  1.17392627144E-05  1.30263600290E-05
  1.43354584760E-05  1.56669341340E-05  1.70211695100E-05  1.83985536499E-05
  1.97994822493E-05  2.12243577680E-05  2.26735895451E-05  2.41475939168E-05
  2.56467943362E-05  2.71716214944E-05  2.87225134448E-05  3.02999157287E-05
  3.19042815031E-05  3.35360716714E-05  3.51957550153E-05  3.68838083297E-05
  3.86007165596E-05  4.03469729395E-05  4.21230791352E-05  4.39295453875E-05
  4.57668906593E-05  4.76356427843E-05  4.95363386188E-05  5.14695241959E-05
  5.34357548825E-05  5.54355955386E-05  5.74696206798E-05  5.95384146419E-05
  6.16425717497E-05  6.37826964866E-05  6.59594036691E-05  6.81733186230E-05
  7.04250773633E-05  7.27153267767E-05  7.50447248075E-05  7.74139406467E-05
  7.98236549241E-05  8.22745599041E-05  8.47673596843E-05  8.73027703976E-05
  8.98815204187E-05  9.25043505725E-05  9.51720143472E-05  9.78852781112E-05
  1.00644921333E-04  1.03451736803E-04  1.06306530867E-04  1.09210123652E-04
  1.12163349303E-04  1.15167056224E-04  1.18222107324E-04  1.21329380258E-04
  1.24489767687E-04  1.27704177528E-04  1.30973533219E-04  1.34298773983E-04
  1.37680855097E-04  1.41120748168E-04  1.44619441410E-04  1.48177939930E-04
  1.51797266016E-04  1.55478459430E-04  1.59222577708E-04  1.63030696463E-04
  1.66903909693E-04  1.70843330098E-04  1.74850089397E-04  1.78925338654E-04
  1.83070248610E-04  1.87286010016E-04  1.91573833981E-04  1.95934952312E-04
  2.00370617874E-04  2.04882104949E-04  2.09470709599E-04  2.14137750041E-04
  2.18884567027E-04  2.23712524224E-04  2.28623008611E-04  2.33617430876E-04
  2.38697225819E-04  2.43863852768E-04  2.49118795993E-04  2.54463565139E-04
  2.59899695654E-04  2.65428749234E-04  2.71052314268E-04  2.76772006298E-04
  2.82589468481E-04  2.88506372061E-04  2.94524416850E-04  3.00645331716E-04
  3.06870875079E-04  3.13202835418E-04  3.19643031781E-04  3.26193314313E-04
  3.32855564784E-04  3.39631697128E-04  3.46523657998E-04  3.53533427320E-04
  3.60663018866E-04  3.67914480830E-04  3.75289896415E-04  3.82791384437E-04
  3.90421099927E-04  3.98181234755E-04  4.06074018258E-04  4.14101717880E-04
  4.22266639823E-04  4.30571129712E-04  4.39017573265E-04  4.47608396984E-04
  4.56346068844E-04  4.65233099010E-04  4.74272040554E-04  4.83465490189E-04
  4.92816089015E-04  5.02326523278E-04  5.11999525141E-04  5.21837873472E-04
  5.31844394637E-04  5.42021963316E-04  5.52373503328E-04  5.62901988470E-04
  5.73610443371E-04  5.84501944364E-04  5.95579620366E-04  6.06846653779E-04
  6.18306281404E-04  6.29961795370E-04  6.41816544081E-04  6.53873933176E-04
  6.66137426510E-04  6.78610547148E-04  6.91296878376E-04  7.04200064730E-04
  7.17323813048E-04  7.30671893527E-04  7.44248140813E-04  7.58056455100E-04
  7.72100803248E-04  7.86385219927E-04  8.00913808774E-04  8.15690743571E-04
  8.30720269445E-04  8.46006704089E-04  8.61554438999E-04  8.77367940739E-04
  8.93451752221E-04  9.09810494014E-04  9.26448865667E-04  9.43371647063E-04
  9.60583699789E-04  9.78089968536E-04  9.95895482514E-04  1.01400535690E-03
  1.03242479432E-03  1.05115908632E-03  1.07021361489E-03  1.08959385403E-03
  1.10930537132E-03  1.12935382948E-03  1.14974498806E-03  1.17048470503E-03
  1.19157893852E-03  1.21303374849E-03  1.23485529850E-03  1.25704985745E-03
  1.27962380141E-03  1.30258361543E-03  1.32593589544E-03  1.34968735008E-03
  1.37384480269E-03  1.39841519324E-03  1.42340558032E-03  1.44882314319E-03
  1.47467518383E-03  1.50096912902E-03  1.52771253251E-03  1.55491307716E-03
  1.58257857716E-03  1.61071698027E-03  1.63933637011E-03  1.66844496848E-03
  1.69805113771E-03  1.72816338309E-03  1.75879035528E-03  1.78994085281E-03
  1.82162382463E-03  1.85384837263E-03  1.88662375431E-03  1.91995938539E-03
  1.95386484257E-03  1.98834986621E-03  2.02342436321E-03  2.05909840978E-03
  2.09538225439E-03  2.13228632069E-03  2.16982121050E-03  2.20799770686E-03
  2.24682677715E-03  2.28631957620E-03  2.32648744954E-03  2.36734193662E-03
  2.40889477413E-03  2.45115789941E-03  2.49414345383E-03  2.53786378632E-03
  2.58233145687E-03  2.62755924019E-03  2.67356012935E-03  2.72034733950E-03
  2.76793431172E-03  2.81633471681E-03  2.86556245929E-03  2.91563168131E-03
  2.96655676681E-03  3.01835234557E-03  3.07103329747E-03  3.12461475672E-03
  3.17911211623E-03  3.23454103205E-03  3.29091742782E-03  3.34825749941E-03
  3.40657771949E-03  3.46589484234E-03  3.52622590862E-03  3.58758825028E-03
  3.64999949553E-03  3.71347757392E-03  3.77804072147E-03  3.84370748592E-03
  3.91049673207E-03  3.97842764716E-03  4.04751974644E-03  4.11779287874E-03
  4.18926723215E-03  4.26196333989E-03  4.33590208613E-03  4.41110471206E-03
  4.48759282191E-03  4.56538838926E-03  4.64451376326E-03  4.72499167510E-03
  4.80684524452E-03  4.89009798648E-03  4.97477381787E-03  5.06089706443E-03
  5.14849246769E-03  5.23758519212E-03  5.32820083234E-03  5.42036542046E-03
  5.51410543359E-03  5.60944780142E-03  5.70641991397E-03  5.80504962944E-03
  5.90536528225E-03  6.00739569115E-03  6.11117016749E-03  6.21671852367E-03
  6.32407108170E-03  6.43325868188E-03  6.54431269171E-03  6.65726501484E-03
  6.77214810030E-03  6.88899495178E-03  7.00783913711E-03  7.12871479792E-03
  7.25165665946E-03  7.37670004055E-03  7.50388086372E-03  7.63323566557E-03
  7.76480160723E-03  7.89861648504E-03  8.03471874144E-03  8.17314747597E-03
  8.31394245651E-03  8.45714413076E-03  8.60279363777E-03  8.75093281984E-03
  8.90160423447E-03  9.05485116666E-03  9.21071764129E-03  9.36924843576E-03
  9.53048909292E-03  9.69448593409E-03  9.86128607238E-03  1.00309374262E-02
  1.02034887332E-02  1.03789895640E-02  1.05574903365E-02  1.07390423307E-02
  1.09236977028E-02  1.11115095007E-02  1.13025316793E-02  1.14968191154E-02
  1.16944276240E-02  1.18954139744E-02  1.20998359059E-02  1.23077521450E-02
  1.25192224220E-02  1.27343074883E-02  1.29530691337E-02  1.31755702041E-02
  1.34018746197E-02  1.36320473935E-02  1.38661546496E-02  1.41042636425E-02
  1.43464427764E-02  1.45927616246E-02  1.48432909497E-02  1.50981027240E-02
  1.53572701499E-02  1.56208676813E-02  1.58889710447E-02  1.61616572608E-02
  1.64390046673E-02  1.67210929405E-02  1.70080031192E-02  1.72998176269E-02
  1.75966202964E-02  1.78984963933E-02  1.82055326407E-02  1.85178172443E-02
  1.88354399174E-02  1.91584919068E-02  1.94870660191E-02  1.98212566473E-02
  2.01611597979E-02  2.05068731184E-02  2.08584959257E-02  2.12161292342E-02
  2.15798757849E-02  2.19498400753E-02  2.23261283889E-02  2.27088488260E-02
  2.30981113350E-02  2.34940277432E-02  2.38967117899E-02  2.43062791584E-02
  2.47228475094E-02  2.51465365150E-02  2.55774678929E-02  2.60157654413E-02
  2.64615550745E-02  2.69149648594E-02  2.73761250518E-02  2.78451681341E-02
  2.83222288533E-02  2.88074442596E-02  2.93009537462E-02  2.98028990887E-02
  3.03134244863E-02  3.08326766030E-02  3.13608046100E-02  3.18979602283E-02
  3.24442977722E-02  3.29999741939E-02  3.35651491285E-02  3.41399849399E-02
  3.47246467672E-02  3.53193025725E-02  3.59241231889E-02  3.65392823696E-02
  3.71649568380E-02  3.78013263383E-02  3.84485736870E-02  3.91068848258E-02
  3.97764488748E-02  4.04574581868E-02  4.11501084025E-02  4.18545985070E-02
  4.25711308866E-02  4.32999113873E-02  4.40411493735E-02  4.47950577886E-02
  4.55618532159E-02  4.63417559409E-02  4.71349900145E-02  4.79417833176E-02
  4.87623676262E-02  4.95969786784E-02  5.04458562417E-02  5.13092441822E-02
  5.21873905346E-02  5.30805475734E-02  5.39889718852E-02  5.49129244429E-02
  5.58526706800E-02  5.68084805675E-02  5.77806286911E-02  5.87693943302E-02
  5.97750615379E-02  6.07979192230E-02  6.18382612327E-02  6.28963864372E-02
  6.39725988153E-02  6.50672075420E-02  6.61805270773E-02  6.73128772562E-02
  6.84645833811E-02  6.96359763149E-02  7.08273925761E-02  7.20391744355E-02
  7.32716700147E-02  7.45252333856E-02  7.58002246729E-02  7.70970101569E-02
  7.84159623789E-02  7.97574602484E-02  8.11218891518E-02  8.25096410630E-02
  8.39211146564E-02  8.53567154210E-02  8.68168557771E-02  8.83019551949E-02
  8.98124403145E-02  9.13487450692E-02  9.29113108097E-02  9.45005864307E-02
  9.61170285004E-02  9.77611013914E-02  9.94332774140E-02  1.01134036952E-01
  1.02863868601E-01  1.04623269307E-01  1.06412744513E-01  1.08232808301E-01
  1.10083983538E-01  1.11966802033E-01  1.13881804683E-01  1.15829541630E-01
  1.17810572422E-01  1.19825466170E-01  1.21874801715E-01  1.23959167791E-01
  1.26079163197E-01  1.28235396965E-01  1.30428488540E-01  1.32659067955E-01
  1.34927776012E-01  1.37235264466E-01  1.39582196216E-01  1.41969245489E-01
  1.44397098037E-01  1.46866451336E-01  1.49378014784E-01  1.51932509904E-01
  1.54530670553E-01  1.57173243132E-01  1.59860986801E-01  1.62594673697E-01
  1.65375089156E-01  1.68203031936E-01  1.71079314452E-01  1.74004763003E-01
  1.76980218014E-01  1.80006534276E-01  1.83084581190E-01  1.86215243022E-01
  1.89399419148E-01  1.92638024320E-01  1.95931988929E-01  1.99282259265E-01
  2.02689797798E-01  2.06155583445E-01  2.09680611862E-01  2.13265895719E-01
  2.16912465001E-01  2.20621367295E-01  2.24393668098E-01  2.28230451118E-01
  2.32132818590E-01  2.36101891587E-01  2.40138810347E-01  2.44244734600E-01
  2.48420843898E-01  2.52668337956E-01  2.56988436997E-01  2.61382382102E-01
  2.65851435566E-01  2.70396881262E-01  2.75020025009E-01  2.79722194946E-01
  2.84504741915E-01  2.89369039850E-01  2.94316486170E-01  2.99348502180E-01
  3.04466533481E-01  3.09672050385E-01  3.14966548334E-01  3.20351548338E-01
  3.25828597400E-01  3.31399268973E-01  3.37065163402E-01  3.42827908389E-01
  3.48689159458E-01  3.54650600435E-01  3.60713943925E-01  3.66880931810E-01
  3.73153335747E-01  3.79532957674E-01  3.86021630335E-01  3.92621217800E-01
  3.99333616002E-01  4.06160753283E-01  4.13104590948E-01  4.20167123827E-01
  4.27350380849E-01  4.34656425624E-01  4.42087357039E-01  4.49645309855E-01
  4.57332455327E-01  4.65151001823E-01  4.73103195459E-01  4.81191320747E-01
  4.89417701249E-01  4.97784700245E-01  5.06294721411E-01  5.14950209513E-01
  5.23753651104E-01  5.32707575243E-01  5.41814554219E-01  5.51077204291E-01
  5.60498186438E-01  5.70080207127E-01  5.79826019088E-01  5.89738422102E-01
  5.99820263812E-01  6.10074440535E-01  6.20503898099E-01  6.31111632685E-01
  6.41900691688E-01  6.52874174598E-01  6.64035233884E-01  6.75387075902E-01
  6.86932961816E-01  6.98676208536E-01  7.10620189670E-01  7.22768336492E-01
  7.35124138930E-01  7.47691146567E-01  7.60472969661E-01  7.73473280182E-01
  7.86695812868E-01  8.00144366296E-01  8.13822803977E-01  8.27735055460E-01
  8.41885117466E-01  8.56277055033E-01  8.70915002688E-01  8.85803165630E-01
  9.00945820938E-01  9.16347318806E-01  9.32012083785E-01  9.47944616060E-01
  9.64149492738E-01  9.80631369167E-01  9.97394980272E-01  1.01444514191E+00
  1.03178675227E+00  1.04942479326E+00  1.06736433194E+00  1.08561052199E+00
  1.10416860521E+00  1.12304391295E+00  1.14224186774E+00  1.16176798477E+00
  1.18162787352E+00  1.20182723935E+00  1.22237188516E+00  1.24326771300E+00
  1.26452072587E+00  1.28613702932E+00  1.30812283332E+00  1.33048445395E+00
  1.35322831528E+00  1.37636095118E+00  1.39988900720E+00  1.42381924251E+00
  1.44815853179E+00  1.47291386725E+00  1.49809236062E+00  1.52370124520E+00
  1.54974787792E+00  1.57623974148E+00  1.60318444647E+00  1.63058973358E+00
  1.65846347584E+00  1.68681368081E+00  1.71564849298E+00  1.74497619602E+00
  1.77480521520E+00  1.80514411985E+00  1.83600162572E+00  1.86738659760E+00
  1.89930805176E+00  1.93177515864E+00  1.96479724540E+00  1.99838379864E+00
  2.03254446714E+00  2.06728906459E+00  2.10262757244E+00  2.13857014277E+00
  2.17512710117E+00  2.21230894976E+00  2.25012637016E+00  2.28859022658E+00
  2.32771156895E+00  2.36750163606E+00  2.40797185885E+00  2.44913386361E+00
  2.49099947539E+00  2.53358072138E+00  2.57688983434E+00  2.62093925615E+00
  2.66574164135E+00  2.71130986079E+00  2.75765700535E+00  2.80479638967E+00
  2.85274155597E+00  2.90150627797E+00  2.95110456484E+00  3.00155066521E+00
  3.05285907126E+00  3.10504452290E+00  3.15812201201E+00  3.21210678672E+00
  3.26701435581E+00  3.32286049316E+00  3.37966124229E+00  3.43743292096E+00
  3.49619212585E+00  3.55595573734E+00  3.61674092436E+00  3.67856514932E+00
  3.74144617312E+00  3.80540206027E+00  3.87045118405E+00  3.93661223182E+00
  4.00390421036E+00  4.07234645136E+00  4.14195861696E+00  4.21276070537E+00
  4.28477305668E+00  4.35801635862E+00  4.43251165260E+00  4.50828033966E+00
  4.58534418668E+00  4.66372533261E+00  4.74344629485E+00  4.82452997567E+00
  4.90699966885E+00  4.99087906635E+00  5.07619226508E+00  5.16296377388E+00
  5.25121852052E+00  5.34098185889E+00  5.43227957625E+00  5.52513790068E+00
  5.61958350856E+00  5.71564353231E+00  5.81334556809E+00  5.91271768383E+00
  6.01378842719E+00  6.11658683386E+00  6.22114243583E+00  6.32748526989E+00
  6.43564588628E+00  6.54565535747E+00  6.65754528703E+00  6.77134781878E+00
  6.88709564599E+00  7.00482202076E+00  7.12456076361E+00  7.24634627316E+00
  7.37021353604E+00  7.49619813690E+00  7.62433626868E+00  7.75466474300E+00
  7.88722100070E+00  8.02204312262E+00  8.15916984056E+00  8.29864054837E+00
  8.44049531328E+00  8.58477488742E+00  8.73152071952E+00  8.88077496683E+00
  9.03258050718E+00  9.18698095139E+00  9.34402065571E+00  9.50374473461E+00
  9.66619907373E+00  9.83143034304E+00  9.99948601031E+00  1.01704143547E+01
  1.03442644805E+01  1.05210863317E+01  1.07009307056E+01  1.08838492680E+01
  1.10698945681E+01  1.12591200528E+01  1.14515800832E+01  1.16473299492E+01
  1.18464258859E+01  1.20489250898E+01  1.22548857350E+01  1.24643669900E+01
  1.26774290347E+01  1.28941330777E+01  1.31145413738E+01  1.33387172422E+01
  1.35667250842E+01  1.37986304021E+01  1.40344998177E+01  1.42744010917E+01
  1.45184031433E+01  1.47665760694E+01  1.50189911653E+01  1.52757209450E+01
  1.55368391619E+01  1.58024208304E+01  1.60725422469E+01  1.63472810120E+01
  1.66267160528E+01  1.69109276457E+01  1.71999974391E+01  1.74940084772E+01
  1.77930452237E+01  1.80971935860E+01  1.84065409401E+01  1.87211761555E+01
  1.90411896208E+01  1.93666732696E+01  1.96977206072E+01  2.00344267370E+01
  2.03768883882E+01  2.07252039433E+01  2.10794734668E+01  2.14397987334E+01
  2.18062832575E+01  2.21790323230E+01  2.25581530137E+01  2.29437542434E+01
  2.33359467880E+01  2.37348433168E+01  2.41405584251E+01  2.45532086669E+01
  2.49729125887E+01  2.53997907633E+01  2.58339658245E+01  2.62755625025E+01
  2.67247076594E+01  2.71815303259E+01  2.76461617383E+01  2.81187353763E+01
  2.85993870011E+01  2.90882546946E+01  2.95854788991E+01  3.00912024574E+01
  3.06055706542E+01  3.11287312574E+01  3.16608345610E+01  3.22020334279E+01
  3.27524833342E+01  3.33123424135E+01  3.38817715023E+01  3.44609341867E+01
  3.50499968489E+01  3.56491287152E+01  3.62585019046E+01  3.68782914783E+01
  3.75086754897E+01  3.81498350360E+01  3.88019543099E+01  3.94652206527E+01
  4.01398246080E+01  4.08259599765E+01  4.15238238714E+01  4.22336167757E+01
  4.29555425991E+01  4.36898087369E+01  4.44366261296E+01  4.51962093234E+01
  4.59687765318E+01  4.67545496984E+01  4.75537545606E+01  4.83666207146E+01
  4.91933816810E+01  5.00342749723E+01  5.08895421609E+01  5.17594289485E+01
  5.26441852366E+01  5.35440651987E+01  5.44593273529E+01  5.53902346362E+01
  5.63370544804E+01  5.73000588884E+01  5.82795245128E+01  5.92757327351E+01
  6.02889697466E+01  6.13195266308E+01  6.23676994466E+01  6.34337893139E+01
  6.45181024996E+01  6.56209505059E+01  6.67426501597E+01  6.78835237037E+01
  6.90438988887E+01  7.02241090680E+01  7.14244932932E+01  7.26453964115E+01
  7.38871691647E+01  7.51501682901E+01  7.64347566228E+01  7.77413032003E+01
  7.90701833681E+01  8.04217788878E+01  8.17964780466E+01  8.31946757690E+01
  8.46167737301E+01  8.60631804711E+01  8.75343115168E+01  8.90305894945E+01
  9.05524442560E+01  9.21003130008E+01  9.36746404015E+01  9.52758787320E+01
  9.69044879971E+01  9.85609360646E+01  1.00245698800E+02  1.01959260203E+02
  1.03702112547E+02  1.05474756519E+02  1.07277701367E+02  1.09111465040E+02
  1.10976574344E+02  1.12873565088E+02  1.14802982242E+02  1.16765380089E+02
  1.18761322389E+02  1.20791382536E+02  1.22856143729E+02  1.24956199133E+02
  1.27092152053E+02  1.29264616107E+02  1.31474215403E+02  1.33721584714E+02
  1.36007369668E+02  1.38332226925E+02  1.40696824372E+02  1.43101841313E+02
  1.45547968662E+02  1.48035909144E+02  1.50566377496E+02  1.53140100673E+02
  1.55757818056E+02  1.58420281665E+02  1.61128256373E+02  1.63882520129E+02
  1.66683864180E+02  1.69533093299E+02  1.72431026012E+02  1.75378494841E+02
  1.78376346536E+02  1.81425442322E+02  1.84526658146E+02  1.87680884925E+02
  1.90889028809E+02  1.94152011436E+02  1.97470770197E+02  2.00846258507E+02
  2.04279446079E+02
  </PP_R>
  <PP_RAB>
  1.07724996813E-06  1.09566405291E-06  1.11439290077E-06  1.13344189215E-06
  1.15281649945E-06  1.17252228862E-06  1.19256492075E-06  1.21295015372E-06
  1.23368384378E-06  1.25477194735E-06  1.27622052261E-06  1.29803573133E-06
  1.32022384060E-06  1.34279122464E-06  1.36574436660E-06  1.38908986050E-06
  1.41283441303E-06  1.43698484555E-06  1.46154809601E-06  1.48653122096E-06
  1.51194139756E-06  1.53778592566E-06  1.56407222991E-06  1.59080786184E-06
  1.61800050208E-06  1.64565796256E-06  1.67378818873E-06  1.70239926185E-06
  1.73149940134E-06  1.76109696710E-06  1.79120046195E-06  1.82181853402E-06
  1.85295997930E-06  1.88463374413E-06  1.91684892777E-06  1.94961478501E-06
  1.98294072885E-06  2.01683633319E-06  2.05131133558E-06  2.08637564003E-06
  2.12203931982E-06  2.15831262044E-06  2.19520596252E-06  2.23272994479E-06
  2.27089534717E-06  2.30971313384E-06  2.34919445639E-06  2.38935065706E-06
  2.43019327193E-06  2.47173403430E-06  2.51398487803E-06  2.55695794097E-06
  2.60066556845E-06  2.64512031682E-06  2.69033495707E-06  2.73632247849E-06
  2.78309609241E-06  2.83066923598E-06  2.87905557605E-06  2.92826901307E-06
  2.97832368512E-06  3.02923397193E-06  3.08101449904E-06  3.13368014200E-06
  3.18724603062E-06  3.24172755335E-06  3.29714036167E-06  3.35350037462E-06
  3.41082378333E-06  3.46912705572E-06  3.52842694117E-06  3.58874047541E-06
  3.65008498535E-06  3.71247809406E-06  3.77593772590E-06  3.84048211157E-06
  3.90612979344E-06  3.97289963081E-06  4.04081080537E-06  4.10988282667E-06
  4.18013553779E-06  4.25158912095E-06  4.32426410340E-06  4.39818136324E-06
  4.47336213549E-06  4.54982801811E-06  4.62760097828E-06  4.70670335866E-06
  4.78715788383E-06  4.86898766684E-06  4.95221621578E-06  5.03686744060E-06
  5.12296565998E-06  5.21053560826E-06  5.29960244259E-06  5.39019175015E-06
  5.48232955549E-06  5.57604232803E-06  5.67135698962E-06  5.76830092234E-06
  5.86690197629E-06  5.96718847764E-06  6.06918923678E-06  6.17293355654E-06
  6.27845124066E-06  6.38577260233E-06  6.49492847289E-06  6.60595021073E-06
  6.71886971023E-06  6.83371941098E-06  6.95053230708E-06  7.06934195661E-06
  7.19018249129E-06  7.31308862626E-06  7.43809567008E-06  7.56523953485E-06
  7.69455674655E-06  7.82608445550E-06  7.95986044708E-06  8.09592315254E-06
  8.23431166005E-06  8.37506572596E-06  8.51822578619E-06  8.66383296785E-06
  8.81192910107E-06  8.96255673101E-06  9.11575913006E-06  9.27158031031E-06
  9.43006503617E-06  9.59125883724E-06  9.75520802137E-06  9.92195968800E-06
  1.00915617416E-05  1.02640629057E-05  1.04395127364E-05  1.06179616371E-05
  1.07994608727E-05  1.09840625845E-05  1.11718198048E-05  1.13627864729E-05
  1.15570174496E-05  1.17545685337E-05  1.19554964780E-05  1.21598590050E-05
  1.23677148242E-05  1.25791236486E-05  1.27941462118E-05  1.30128442856E-05
  1.32352806978E-05  1.34615193499E-05  1.36916252362E-05  1.39256644613E-05
  1.41637042605E-05  1.44058130177E-05  1.46520602863E-05  1.49025168083E-05
  1.51572545350E-05  1.54163466476E-05  1.56798675783E-05  1.59478930315E-05
  1.62205000058E-05  1.64977668158E-05  1.67797731150E-05  1.70665999184E-05
  1.73583296256E-05  1.76550460450E-05  1.79568344175E-05  1.82637814411E-05
  1.85759752956E-05  1.88935056684E-05  1.92164637798E-05  1.95449424094E-05
  1.98790359227E-05  2.02188402983E-05  2.05644531555E-05  2.09159737822E-05
  2.12735031634E-05  2.16371440104E-05  2.20070007901E-05  2.23831797554E-05
  2.27657889750E-05  2.31549383653E-05  2.35507397213E-05  2.39533067491E-05
  2.43627550984E-05  2.47792023959E-05  2.52027682786E-05  2.56335744290E-05
  2.60717446093E-05  2.65174046973E-05  2.69706827226E-05  2.74317089031E-05
  2.79006156827E-05  2.83775377693E-05  2.88626121734E-05  2.93559782475E-05
  2.98577777260E-05  3.03681547663E-05  3.08872559898E-05  3.14152305243E-05
  3.19522300466E-05  3.24984088263E-05  3.30539237699E-05  3.36189344663E-05
  3.41936032320E-05  3.47780951581E-05  3.53725781581E-05  3.59772230153E-05
  3.65922034324E-05  3.72176960815E-05  3.78538806545E-05  3.85009399149E-05
  3.91590597503E-05  3.98284292258E-05  4.05092406383E-05  4.12016895718E-05
  4.19059749534E-05  4.26222991107E-05  4.33508678297E-05  4.40918904142E-05
  4.48455797456E-05  4.56121523443E-05  4.63918284316E-05  4.71848319936E-05
  4.79913908448E-05  4.88117366938E-05  4.96461052103E-05  5.04947360921E-05
  5.13578731344E-05  5.22357642999E-05  5.31286617897E-05  5.40368221159E-05
  5.49605061754E-05  5.58999793249E-05  5.68555114567E-05  5.78273770767E-05
  5.88158553831E-05  5.98212303467E-05  6.08437907922E-05  6.18838304813E-05
  6.29416481975E-05  6.40175478312E-05  6.51118384676E-05  6.62248344753E-05
  6.73568555964E-05  6.85082270386E-05  6.96792795689E-05  7.08703496077E-05
  7.20817793267E-05  7.33139167459E-05  7.45671158348E-05  7.58417366131E-05
  7.71381452548E-05  7.84567141929E-05  7.97978222267E-05  8.11618546308E-05
  8.25492032651E-05  8.39602666881E-05  8.53954502711E-05  8.68551663144E-05
  8.83398341663E-05  8.98498803431E-05  9.13857386519E-05  9.29478503150E-05
  9.45366640968E-05  9.61526364329E-05  9.77962315608E-05  9.94679216536E-05
  1.01168186955E-04  1.02897515920E-04  1.04656405349E-04  1.06445360539E-04
  1.08264895421E-04  1.10115532712E-04  1.11997804065E-04  1.13912250220E-04
  1.15859421160E-04  1.17839876269E-04  1.19854184495E-04  1.21902924509E-04
  1.23986684874E-04  1.26106064215E-04  1.28261671387E-04  1.30454125656E-04
  1.32684056870E-04  1.34952105647E-04  1.37258923552E-04  1.39605173290E-04
  1.41991528892E-04  1.44418675913E-04  1.46887311625E-04  1.49398145220E-04
  1.51951898010E-04  1.54549303640E-04  1.57191108295E-04  1.59878070913E-04
  1.62610963408E-04  1.65390570885E-04  1.68217691873E-04  1.71093138549E-04
  1.74017736972E-04  1.76992327324E-04  1.80017764147E-04  1.83094916590E-04
  1.86224668659E-04  1.89407919472E-04  1.92645583515E-04  1.95938590907E-04
  1.99287887664E-04  2.02694435974E-04  2.06159214474E-04  2.09683218527E-04
  2.13267460511E-04  2.16912970110E-04  2.20620794607E-04  2.24391999189E-04
  2.28227667251E-04  2.32128900705E-04  2.36096820300E-04  2.40132565943E-04
  2.44237297026E-04  2.48412192758E-04  2.52658452505E-04  2.56977296137E-04
  2.61369964374E-04  2.65837719143E-04  2.70381843945E-04  2.75003644219E-04
  2.79704447718E-04  2.84485604893E-04  2.89348489276E-04  2.94294497882E-04
  2.99325051602E-04  3.04441595617E-04  3.09645599811E-04  3.14938559194E-04
  3.20321994331E-04  3.25797451779E-04  3.31366504529E-04  3.37030752465E-04
  3.42791822813E-04  3.48651370619E-04  3.54611079218E-04  3.60672660717E-04
  3.66837856492E-04  3.73108437685E-04  3.79486205712E-04  3.85972992782E-04
  3.92570662425E-04  3.99281110022E-04  4.06106263356E-04  4.13048083161E-04
  4.20108563687E-04  4.27289733274E-04  4.34593654933E-04  4.42022426939E-04
  4.49578183435E-04  4.57263095043E-04  4.65079369491E-04  4.73029252241E-04
  4.81115027142E-04  4.89339017080E-04  4.97703584649E-04  5.06211132827E-04
  5.14864105667E-04  5.23664989002E-04  5.32616311155E-04  5.41720643668E-04
  5.50980602039E-04  5.60398846475E-04  5.69978082655E-04  5.79721062509E-04
  5.89630585006E-04  5.99709496960E-04  6.09960693848E-04  6.20387120640E-04
  6.30991772646E-04  6.41777696379E-04  6.52747990425E-04  6.63905806338E-04
  6.75254349541E-04  6.86796880252E-04  6.98536714417E-04  7.10477224663E-04
  7.22621841267E-04  7.34974053142E-04  7.47537408841E-04  7.60315517572E-04
  7.73312050238E-04  7.86530740492E-04  7.99975385808E-04  8.13649848572E-04
  8.27558057192E-04  8.41704007229E-04  8.56091762539E-04  8.70725456446E-04
  8.85609292928E-04  9.00747547822E-04  9.16144570057E-04  9.31804782898E-04
  9.47732685222E-04  9.63932852807E-04  9.80409939648E-04  9.97168679293E-04
  1.01421388620E-03  1.03155045714E-03  1.04918337256E-03  1.06711769806E-03
  1.08535858582E-03  1.10391127610E-03  1.12278109874E-03  1.14197347465E-03
  1.16149391744E-03  1.18134803497E-03  1.20154153092E-03  1.22208020650E-03
  1.24296996208E-03  1.26421679888E-03  1.28582682070E-03  1.30780623568E-03
  1.33016135809E-03  1.35289861011E-03  1.37602452373E-03  1.39954574256E-03
  1.42346902381E-03  1.44780124015E-03  1.47254938178E-03  1.49772055836E-03
  1.52332200106E-03  1.54936106470E-03  1.57584522979E-03  1.60278210473E-03
  1.63017942794E-03  1.65804507016E-03  1.68638703665E-03  1.71521346949E-03
  1.74453264998E-03  1.77435300094E-03  1.80468308918E-03  1.83553162795E-03
  1.86690747943E-03  1.89881965731E-03  1.93127732933E-03  1.96428981996E-03
  1.99786661305E-03  2.03201735455E-03  2.06675185531E-03  2.10208009389E-03
  2.13801221940E-03  2.17455855446E-03  2.21172959810E-03  2.24953602886E-03
  2.28798870779E-03  2.32709868160E-03  2.36687718583E-03  2.40733564808E-03
  2.44848569127E-03  2.49033913703E-03  2.53290800902E-03  2.57620453648E-03
  2.62024115764E-03  2.66503052339E-03  2.71058550083E-03  2.75691917704E-03
  2.80404486278E-03  2.85197609634E-03  2.90072664745E-03  2.95031052120E-03
  3.00074196206E-03  3.05203545803E-03  3.10420574472E-03  3.15726780966E-03
  3.21123689654E-03  3.26612850964E-03  3.32195841826E-03  3.37874266125E-03
  3.43649755162E-03  3.49523968124E-03  3.55498592559E-03  3.61575344860E-03
  3.67755970761E-03  3.74042245836E-03  3.80435976010E-03  3.86938998078E-03
  3.93553180233E-03  4.00280422601E-03  4.07122657789E-03  4.14081851438E-03
  4.21160002790E-03  4.28359145261E-03  4.35681347025E-03  4.43128711610E-03
  4.50703378498E-03  4.58407523746E-03  4.66243360605E-03  4.74213140159E-03
  4.82319151972E-03  4.90563724743E-03  4.98949226980E-03  5.07478067675E-03
  5.16152696999E-03  5.24975607005E-03  5.33949332343E-03  5.43076450993E-03
  5.52359584998E-03  5.61801401223E-03  5.71404612119E-03  5.81171976503E-03
  5.91106300350E-03  6.01210437598E-03  6.11487290972E-03  6.21939812811E-03
  6.32571005923E-03  6.43383924445E-03  6.54381674718E-03  6.65567416183E-03
  6.76944362288E-03  6.88515781408E-03  7.00284997790E-03  7.12255392500E-03
  7.24430404401E-03  7.36813531139E-03  7.49408330147E-03  7.62218419667E-03
  7.75247479789E-03  7.88499253510E-03  8.01977547808E-03  8.15686234737E-03
  8.29629252537E-03  8.43810606768E-03  8.58234371457E-03  8.72904690273E-03
  8.87825777716E-03  9.03001920324E-03  9.18437477910E-03  9.34136884812E-03
  9.50104651163E-03  9.66345364196E-03  9.82863689552E-03  9.99664372627E-03
  1.01675223993E-02  1.03413220048E-02  1.05180924720E-02  1.06978845836E-02
  1.08807499904E-02  1.10667412262E-02  1.12559117226E-02  1.14483158246E-02
  1.16440088062E-02  1.18430468862E-02  1.20454872444E-02  1.22513880380E-02
  1.24608084183E-02  1.26738085477E-02  1.28904496171E-02  1.31107938632E-02
  1.33349045867E-02  1.35628461702E-02  1.37946840970E-02  1.40304849696E-02
  1.42703165290E-02  1.45142476743E-02  1.47623484820E-02  1.50146902267E-02
  1.52713454015E-02  1.55323877382E-02  1.57978922294E-02  1.60679351493E-02
  1.63425940760E-02  1.66219479138E-02  1.69060769156E-02  1.71950627061E-02
  1.74889883054E-02  1.77879381526E-02  1.80919981302E-02  1.84012555888E-02
  1.87157993721E-02  1.90357198423E-02  1.93611089065E-02  1.96920600427E-02
  2.00286683266E-02  2.03710304594E-02  2.07192447950E-02  2.10734113687E-02
  2.14336319257E-02  2.18000099504E-02  2.21726506961E-02  2.25516612153E-02