
     Program PWSCF v.6.6 starts on 25Jun2021 at  9:30:44 

     This program is part of the open-source Quantum ESPRESSO suite
     for quantum simulation of materials; please cite
         "P. Giannozzi et al., J. Phys.:Condens. Matter 21 395502 (2009);
         "P. Giannozzi et al., J. Phys.:Condens. Matter 29 465901 (2017);
          URL http://www.quantum-espresso.org", 
     in publications or presentations arising from this work. More details at
     http://www.quantum-espresso.org/quote

     Parallel version (MPI), running on     1 processors

     MPI processes distributed on     1 nodes
     Fft bands division:     nmany     =       1
     Reading input from dft_out/qe.nscf.in
Warning: card &IONS ignored
Warning: card   ION_DYNAMICS='BFGS', ignored
Warning: card / ignored
Warning: card &CELL ignored
Warning: card  CELL_DYNAMICS = 'BFGS' ignored
Warning: card  CELL_DOFREE = 'ALL' ignored
Warning: card  CELL_FACTOR = 1.0 ignored
Warning: card / ignored
     Message from routine read_cards :
     DEPRECATED: no units specified in CELL_PARAMETERS card

     Current dimensions of program PWSCF are:
     Max number of different atomic species (ntypx) = 10
     Max number of k-points (npk) =  40000
     Max angular momentum in pseudopotentials (lmaxx) =  3
     Message from routine volume:
     axis vectors are left-handed

     Atomic positions and unit cell read from directory:
     dft_out/qe.nscf.save/
     Atomic positions from file used, from input discarded

     Message from routine volume:
     axis vectors are left-handed
     file mg.pbesol.UPF: wavefunction(s)  3P renormalized

     Subspace diagonalization in iterative solution of the eigenvalue problem:
     a serial algorithm will be used

     Message from routine setup:
     using ibrav=0 with symmetry is DISCOURAGED, use correct ibrav instead

     G-vector sticks info
     --------------------
     sticks:   dense  smooth     PW     G-vecs:    dense   smooth      PW
     Sum         967     703    211                20179    12339    2109



     bravais-lattice index     =            0
     lattice parameter (alat)  =       7.5513  a.u.
     unit-cell volume          =     304.4693 (a.u.)^3
     number of atoms/cell      =            2
     number of atomic types    =            2
     number of electrons       =        16.00
     number of Kohn-Sham states=           33
     kinetic-energy cutoff     =      45.0000  Ry
     charge density cutoff     =     250.0000  Ry
     Exchange-correlation= SLA  PW   PSX  PSC
                           (   1   4  10   8   0   0   0)
     A smooth kinetic-energy cutoff is imposed at      44.5000 Ry
     height of the smooth step-function =             800.0000 Ry
     width of the smooth step-function  =               1.0000 Ry


     celldm(1)=   7.551261  celldm(2)=   0.000000  celldm(3)=   0.000000
     celldm(4)=   0.000000  celldm(5)=   0.000000  celldm(6)=   0.000000

     crystal axes: (cart. coord. in units of alat)
               a(1) = (   0.707107   0.707107   0.000000 )  
               a(2) = (   0.707107   0.000000   0.707107 )  
               a(3) = (   0.000000   0.707107   0.707107 )  

     reciprocal axes: (cart. coord. in units 2 pi/alat)
               b(1) = (  0.707107  0.707107 -0.707107 )  
               b(2) = (  0.707107 -0.707107  0.707107 )  
               b(3) = ( -0.707107  0.707107  0.707107 )  


     PseudoPot. # 1 for Mg read from file:
     /home/kfg/codes/ThreeBodyTB.jl/src/../pseudo/gbrv_pbesol/mg.pbesol.UPF
     MD5 check sum: cbba17e5274afd115179030b10be074e
     Pseudo is Ultrasoft, Zval = 10.0
     Generated by new atomic code, or converted to UPF format
     Using radial grid of  821 points,  7 beta functions with: 
                l(1) =   0
                l(2) =   0
                l(3) =   0
                l(4) =   1
                l(5) =   1
                l(6) =   2
                l(7) =   2
     Q(r) pseudized with  8 coefficients,  rinner =    1.200   1.200   1.200
                                                       1.200   1.200

     PseudoPot. # 2 for S  read from file:
     /home/kfg/codes/ThreeBodyTB.jl/src/../pseudo/gbrv_pbesol/s.pbesol.UPF
     MD5 check sum: 0ccfa86ec6eb59065d10aaae963ef2a7
     Pseudo is Ultrasoft + core correction, Zval =  6.0
     Generated by new atomic code, or converted to UPF format
     Using radial grid of  907 points,  6 beta functions with: 
                l(1) =   0
                l(2) =   0
                l(3) =   1
                l(4) =   1
                l(5) =   2
                l(6) =   2
     Q(r) pseudized with  8 coefficients,  rinner =    1.300   1.300   1.300
                                                       1.300   1.300

     atomic species   valence    mass     pseudopotential
        Mg            10.00    24.31000     Mg( 1.00)
        S              6.00    32.06000     S ( 1.00)

     24 Sym. Ops. (no inversion) found


                                    s                        frac. trans.

      isym =  1     identity                                     

 cryst.   s( 1) = (     1          0          0      )
                  (     0          1          0      )
                  (     0          0          1      )

 cart.    s( 1) = (  1.0000000  0.0000000  0.0000000 )
                  (  0.0000000  1.0000000  0.0000000 )
                  (  0.0000000  0.0000000  1.0000000 )


      isym =  2     180 deg rotation - cart. axis [0,0,1]        

 cryst.   s( 2) = (    -1          0          0      )
                  (    -1          0          1      )
                  (    -1          1          0      )

 cart.    s( 2) = ( -1.0000000  0.0000000  0.0000000 )
                  (  0.0000000 -1.0000000  0.0000000 )
                  (  0.0000000  0.0000000  1.0000000 )


      isym =  3     180 deg rotation - cart. axis [0,1,0]        

 cryst.   s( 3) = (     0         -1          1      )
                  (     0         -1          0      )
                  (     1         -1          0      )

 cart.    s( 3) = ( -1.0000000  0.0000000  0.0000000 )
                  (  0.0000000  1.0000000  0.0000000 )
                  (  0.0000000  0.0000000 -1.0000000 )


      isym =  4     180 deg rotation - cart. axis [1,0,0]        

 cryst.   s( 4) = (     0          1         -1      )
                  (     1          0         -1      )
                  (     0          0         -1      )

 cart.    s( 4) = (  1.0000000  0.0000000  0.0000000 )
                  (  0.0000000 -1.0000000  0.0000000 )
                  (  0.0000000  0.0000000 -1.0000000 )


      isym =  5     120 deg rotation - cart. axis [-1,-1,-1]     

 cryst.   s( 5) = (     0          1          0      )
                  (     0          0          1      )
                  (     1          0          0      )

 cart.    s( 5) = (  0.0000000  1.0000000  0.0000000 )
                  (  0.0000000  0.0000000  1.0000000 )
                  (  1.0000000  0.0000000  0.0000000 )


      isym =  6     120 deg rotation - cart. axis [-1,1,1]       

 cryst.   s( 6) = (     0         -1          0      )
                  (     1         -1          0      )
                  (     0         -1          1      )

 cart.    s( 6) = (  0.0000000 -1.0000000  0.0000000 )
                  (  0.0000000  0.0000000  1.0000000 )
                  ( -1.0000000  0.0000000  0.0000000 )


      isym =  7     120 deg rotation - cart. axis [1,1,-1]       

 cryst.   s( 7) = (     1          0         -1      )
                  (     0          0         -1      )
                  (     0          1         -1      )

 cart.    s( 7) = (  0.0000000  1.0000000  0.0000000 )
                  (  0.0000000  0.0000000 -1.0000000 )
                  ( -1.0000000  0.0000000  0.0000000 )


      isym =  8     120 deg rotation - cart. axis [1,-1,1]       

 cryst.   s( 8) = (    -1          0          1      )
                  (    -1          1          0      )
                  (    -1          0          0      )

 cart.    s( 8) = (  0.0000000 -1.0000000  0.0000000 )
                  (  0.0000000  0.0000000 -1.0000000 )
                  (  1.0000000  0.0000000  0.0000000 )


      isym =  9     120 deg rotation - cart. axis [1,1,1]        

 cryst.   s( 9) = (     0          0          1      )
                  (     1          0          0      )
                  (     0          1          0      )

 cart.    s( 9) = (  0.0000000  0.0000000  1.0000000 )
                  (  1.0000000  0.0000000  0.0000000 )
                  (  0.0000000  1.0000000  0.0000000 )


      isym = 10     120 deg rotation - cart. axis [-1,1,-1]      

 cryst.   s(10) = (     0          0         -1      )
                  (     0          1         -1      )
                  (     1          0         -1      )

 cart.    s(10) = (  0.0000000  0.0000000  1.0000000 )
                  ( -1.0000000  0.0000000  0.0000000 )
                  (  0.0000000 -1.0000000  0.0000000 )


      isym = 11     120 deg rotation - cart. axis [1,-1,-1]      

 cryst.   s(11) = (    -1          1          0      )
                  (    -1          0          0      )
                  (    -1          0          1      )

 cart.    s(11) = (  0.0000000  0.0000000 -1.0000000 )
                  ( -1.0000000  0.0000000  0.0000000 )
                  (  0.0000000  1.0000000  0.0000000 )


      isym = 12     120 deg rotation - cart. axis [-1,-1,1]      

 cryst.   s(12) = (     1         -1          0      )
                  (     0         -1          1      )
                  (     0         -1          0      )

 cart.    s(12) = (  0.0000000  0.0000000 -1.0000000 )
                  (  1.0000000  0.0000000  0.0000000 )
                  (  0.0000000 -1.0000000  0.0000000 )


      isym = 13     inv. 180 deg rotation - cart. axis [1,1,0]   

 cryst.   s(13) = (    -1          0          0      )
                  (    -1          1          0      )
                  (    -1          0          1      )

 cart.    s(13) = (  0.0000000 -1.0000000  0.0000000 )
                  ( -1.0000000  0.0000000  0.0000000 )
                  (  0.0000000  0.0000000  1.0000000 )


      isym = 14     inv. 180 deg rotation - cart. axis [1,-1,0]  

 cryst.   s(14) = (     1          0          0      )
                  (     0          0          1      )
                  (     0          1          0      )

 cart.    s(14) = (  0.0000000  1.0000000  0.0000000 )
                  (  1.0000000  0.0000000  0.0000000 )
                  (  0.0000000  0.0000000  1.0000000 )


      isym = 15     inv.  90 deg rotation - cart. axis [0,0,-1]  

 cryst.   s(15) = (     0         -1          1      )
                  (     1         -1          0      )
                  (     0         -1          0      )

 cart.    s(15) = (  0.0000000 -1.0000000  0.0000000 )
                  (  1.0000000  0.0000000  0.0000000 )
                  (  0.0000000  0.0000000 -1.0000000 )


      isym = 16     inv.  90 deg rotation - cart. axis [0,0,1]   

 cryst.   s(16) = (     0          1         -1      )
                  (     0          0         -1      )
                  (     1          0         -1      )

 cart.    s(16) = (  0.0000000  1.0000000  0.0000000 )
                  ( -1.0000000  0.0000000  0.0000000 )
                  (  0.0000000  0.0000000 -1.0000000 )


      isym = 17     inv. 180 deg rotation - cart. axis [1,0,1]   

 cryst.   s(17) = (     1         -1          0      )
                  (     0         -1          0      )
                  (     0         -1          1      )

 cart.    s(17) = (  0.0000000  0.0000000 -1.0000000 )
                  (  0.0000000  1.0000000  0.0000000 )
                  ( -1.0000000  0.0000000  0.0000000 )


      isym = 18     inv. 180 deg rotation - cart. axis [-1,0,1]  

 cryst.   s(18) = (     0          0          1      )
                  (     0          1          0      )
                  (     1          0          0      )

 cart.    s(18) = (  0.0000000  0.0000000  1.0000000 )
                  (  0.0000000  1.0000000  0.0000000 )
                  (  1.0000000  0.0000000  0.0000000 )


      isym = 19     inv.  90 deg rotation - cart. axis [0,1,0]   

 cryst.   s(19) = (    -1          1          0      )
                  (    -1          0          1      )
                  (    -1          0          0      )

 cart.    s(19) = (  0.0000000  0.0000000 -1.0000000 )
                  (  0.0000000 -1.0000000  0.0000000 )
                  (  1.0000000  0.0000000  0.0000000 )


      isym = 20     inv.  90 deg rotation - cart. axis [0,-1,0]  

 cryst.   s(20) = (     0          0         -1      )
                  (     1          0         -1      )
                  (     0          1         -1      )

 cart.    s(20) = (  0.0000000  0.0000000  1.0000000 )
                  (  0.0000000 -1.0000000  0.0000000 )
                  ( -1.0000000  0.0000000  0.0000000 )


      isym = 21     inv. 180 deg rotation - cart. axis [0,1,1]   

 cryst.   s(21) = (     1          0         -1      )
                  (     0          1         -1      )
                  (     0          0         -1      )

 cart.    s(21) = (  1.0000000  0.0000000  0.0000000 )
                  (  0.0000000  0.0000000 -1.0000000 )
                  (  0.0000000 -1.0000000  0.0000000 )


      isym = 22     inv. 180 deg rotation - cart. axis [0,1,-1]  

 cryst.   s(22) = (     0          1          0      )
                  (     1          0          0      )
                  (     0          0          1      )

 cart.    s(22) = (  1.0000000  0.0000000  0.0000000 )
                  (  0.0000000  0.0000000  1.0000000 )
                  (  0.0000000  1.0000000  0.0000000 )


      isym = 23     inv.  90 deg rotation - cart. axis [-1,0,0]  

 cryst.   s(23) = (    -1          0          1      )
                  (    -1          0          0      )
                  (    -1          1          0      )

 cart.    s(23) = ( -1.0000000  0.0000000  0.0000000 )
                  (  0.0000000  0.0000000 -1.0000000 )
                  (  0.0000000  1.0000000  0.0000000 )


      isym = 24     inv.  90 deg rotation - cart. axis [1,0,0]   

 cryst.   s(24) = (     0         -1          0      )
                  (     0         -1          1      )
                  (     1         -1          0      )

 cart.    s(24) = ( -1.0000000  0.0000000  0.0000000 )
                  (  0.0000000  0.0000000  1.0000000 )
                  (  0.0000000 -1.0000000  0.0000000 )


   Cartesian axes

     site n.     atom                  positions (alat units)
         1           Mg  tau(   1) = (   0.0000000   0.0000000   0.0000000  )
         2           S   tau(   2) = (   0.3535534   0.3535534   0.3535534  )

   Crystallographic axes

     site n.     atom                  positions (cryst. coord.)
         1           Mg  tau(   1) = (  0.0000000  0.0000000  0.0000000  )
         2           S   tau(   2) = (  0.2500000  0.2500000  0.2500000  )

     number of k points=    47  Gaussian smearing, width (Ry)=  0.0100
                       cart. coord. in units 2pi/alat
        k(    1) = (   0.0000000   0.0000000   0.0000000), wk =   0.0020000
        k(    2) = (  -0.0707107   0.0707107   0.0707107), wk =   0.0160000
        k(    3) = (  -0.1414214   0.1414214   0.1414214), wk =   0.0160000
        k(    4) = (  -0.2121320   0.2121320   0.2121320), wk =   0.0160000
        k(    5) = (  -0.2828427   0.2828427   0.2828427), wk =   0.0160000
        k(    6) = (   0.3535534  -0.3535534  -0.3535534), wk =   0.0080000
        k(    7) = (   0.0000000   0.0000000   0.1414214), wk =   0.0120000
        k(    8) = (  -0.0707107   0.0707107   0.2121320), wk =   0.0480000
        k(    9) = (  -0.1414214   0.1414214   0.2828427), wk =   0.0480000
        k(   10) = (  -0.2121320   0.2121320   0.3535534), wk =   0.0480000
        k(   11) = (   0.4242641  -0.4242641  -0.2828427), wk =   0.0480000
        k(   12) = (   0.3535534  -0.3535534  -0.2121320), wk =   0.0480000
        k(   13) = (   0.2828427  -0.2828427  -0.1414214), wk =   0.0480000
        k(   14) = (   0.2121320  -0.2121320  -0.0707107), wk =   0.0480000
        k(   15) = (   0.1414214  -0.1414214   0.0000000), wk =   0.0240000
        k(   16) = (   0.0000000   0.0000000   0.2828427), wk =   0.0120000
        k(   17) = (  -0.0707107   0.0707107   0.3535534), wk =   0.0480000
        k(   18) = (  -0.1414214   0.1414214   0.4242641), wk =   0.0480000
        k(   19) = (   0.4949747  -0.4949747  -0.2121320), wk =   0.0480000
        k(   20) = (   0.4242641  -0.4242641  -0.1414214), wk =   0.0480000
        k(   21) = (   0.3535534  -0.3535534  -0.0707107), wk =   0.0480000
        k(   22) = (   0.2828427  -0.2828427   0.0000000), wk =   0.0240000
        k(   23) = (   0.0000000   0.0000000   0.4242641), wk =   0.0120000
        k(   24) = (  -0.0707107   0.0707107   0.4949747), wk =   0.0480000
        k(   25) = (   0.5656854  -0.5656854  -0.1414214), wk =   0.0480000
        k(   26) = (   0.4949747  -0.4949747  -0.0707107), wk =   0.0480000
        k(   27) = (   0.4242641  -0.4242641  -0.0000000), wk =   0.0240000
        k(   28) = (   0.0000000   0.0000000   0.5656854), wk =   0.0120000
        k(   29) = (   0.6363961  -0.6363961  -0.0707107), wk =   0.0480000
        k(   30) = (   0.5656854  -0.5656854   0.0000000), wk =   0.0240000
        k(   31) = (   0.0000000   0.0000000  -0.7071068), wk =   0.0060000
        k(   32) = (   0.0000000   0.1414214   0.2828427), wk =   0.0480000
        k(   33) = (  -0.0707107   0.2121320   0.3535534), wk =   0.0960000
        k(   34) = (   0.5656854  -0.4242641  -0.2828427), wk =   0.0960000
        k(   35) = (   0.4949747  -0.3535534  -0.2121320), wk =   0.0480000
        k(   36) = (   0.0000000   0.1414214   0.4242641), wk =   0.0480000
        k(   37) = (   0.6363961  -0.4949747  -0.2121320), wk =   0.0960000
        k(   38) = (   0.5656854  -0.4242641  -0.1414214), wk =   0.0960000
        k(   39) = (   0.4949747  -0.3535534  -0.0707107), wk =   0.0960000
        k(   40) = (   0.4242641  -0.2828427   0.0000000), wk =   0.0480000
        k(   41) = (   0.7071068  -0.5656854  -0.1414214), wk =   0.0480000
        k(   42) = (   0.6363961  -0.4949747  -0.0707107), wk =   0.0960000
        k(   43) = (   0.5656854  -0.4242641   0.0000000), wk =   0.0480000
        k(   44) = (   0.0000000   0.1414214  -0.7071068), wk =   0.0240000
        k(   45) = (   0.7071068  -0.4242641  -0.1414214), wk =   0.0480000
        k(   46) = (   0.6363961  -0.3535534  -0.0707107), wk =   0.0480000
        k(   47) = (   0.0000000   0.2828427  -0.7071068), wk =   0.0240000

                       cryst. coord.
        k(    1) = (   0.0000000   0.0000000   0.0000000), wk =   0.0020000
        k(    2) = (   0.0000000   0.0000000   0.1000000), wk =   0.0160000
        k(    3) = (   0.0000000   0.0000000   0.2000000), wk =   0.0160000
        k(    4) = (   0.0000000   0.0000000   0.3000000), wk =   0.0160000
        k(    5) = (   0.0000000   0.0000000   0.4000000), wk =   0.0160000
        k(    6) = (   0.0000000   0.0000000  -0.5000000), wk =   0.0080000
        k(    7) = (   0.0000000   0.1000000   0.1000000), wk =   0.0120000
        k(    8) = (   0.0000000   0.1000000   0.2000000), wk =   0.0480000
        k(    9) = (   0.0000000   0.1000000   0.3000000), wk =   0.0480000
        k(   10) = (   0.0000000   0.1000000   0.4000000), wk =   0.0480000
        k(   11) = (   0.0000000   0.1000000  -0.5000000), wk =   0.0480000
        k(   12) = (   0.0000000   0.1000000  -0.4000000), wk =   0.0480000
        k(   13) = (   0.0000000   0.1000000  -0.3000000), wk =   0.0480000
        k(   14) = (   0.0000000   0.1000000  -0.2000000), wk =   0.0480000
        k(   15) = (   0.0000000   0.1000000  -0.1000000), wk =   0.0240000
        k(   16) = (   0.0000000   0.2000000   0.2000000), wk =   0.0120000
        k(   17) = (   0.0000000   0.2000000   0.3000000), wk =   0.0480000
        k(   18) = (   0.0000000   0.2000000   0.4000000), wk =   0.0480000
        k(   19) = (   0.0000000   0.2000000  -0.5000000), wk =   0.0480000
        k(   20) = (   0.0000000   0.2000000  -0.4000000), wk =   0.0480000
        k(   21) = (   0.0000000   0.2000000  -0.3000000), wk =   0.0480000
        k(   22) = (   0.0000000   0.2000000  -0.2000000), wk =   0.0240000
        k(   23) = (   0.0000000   0.3000000   0.3000000), wk =   0.0120000
        k(   24) = (   0.0000000   0.3000000   0.4000000), wk =   0.0480000
        k(   25) = (   0.0000000   0.3000000  -0.5000000), wk =   0.0480000
        k(   26) = (   0.0000000   0.3000000  -0.4000000), wk =   0.0480000
        k(   27) = (   0.0000000   0.3000000  -0.3000000), wk =   0.0240000
        k(   28) = (   0.0000000   0.4000000   0.4000000), wk =   0.0120000
        k(   29) = (   0.0000000   0.4000000  -0.5000000), wk =   0.0480000
        k(   30) = (   0.0000000   0.4000000  -0.4000000), wk =   0.0240000
        k(   31) = (   0.0000000  -0.5000000  -0.5000000), wk =   0.0060000
        k(   32) = (   0.1000000   0.2000000   0.3000000), wk =   0.0480000
        k(   33) = (   0.1000000   0.2000000   0.4000000), wk =   0.0960000
        k(   34) = (   0.1000000   0.2000000  -0.5000000), wk =   0.0960000
        k(   35) = (   0.1000000   0.2000000  -0.4000000), wk =   0.0480000
        k(   36) = (   0.1000000   0.3000000   0.4000000), wk =   0.0480000
        k(   37) = (   0.1000000   0.3000000  -0.5000000), wk =   0.0960000
        k(   38) = (   0.1000000   0.3000000  -0.4000000), wk =   0.0960000
        k(   39) = (   0.1000000   0.3000000  -0.3000000), wk =   0.0960000
        k(   40) = (   0.1000000   0.3000000  -0.2000000), wk =   0.0480000
        k(   41) = (   0.1000000   0.4000000  -0.5000000), wk =   0.0480000
        k(   42) = (   0.1000000   0.4000000  -0.4000000), wk =   0.0960000
        k(   43) = (   0.1000000   0.4000000  -0.3000000), wk =   0.0480000
        k(   44) = (   0.1000000  -0.5000000  -0.4000000), wk =   0.0240000
        k(   45) = (   0.2000000   0.4000000  -0.4000000), wk =   0.0480000
        k(   46) = (   0.2000000   0.4000000  -0.3000000), wk =   0.0480000
        k(   47) = (   0.2000000  -0.5000000  -0.3000000), wk =   0.0240000

     Dense  grid:    20179 G-vectors     FFT dimensions: (  40,  40,  40)

     Smooth grid:    12339 G-vectors     FFT dimensions: (  36,  36,  36)

     Dynamical RAM for                 wfc:       0.78 MB

     Dynamical RAM for     wfc (w. buffer):      37.51 MB

     Dynamical RAM for           str. fact:       0.62 MB

     Dynamical RAM for           local pot:       0.00 MB

     Dynamical RAM for          nlocal pot:       0.88 MB

     Dynamical RAM for                qrad:       3.39 MB

     Dynamical RAM for          rho,v,vnew:       2.39 MB

     Dynamical RAM for           G-vectors:       1.25 MB

     Dynamical RAM for          h,s,v(r/c):       0.20 MB

     Dynamical RAM for          <psi|beta>:       0.02 MB

     Dynamical RAM for                 psi:       1.56 MB

     Dynamical RAM for                hpsi:       1.56 MB

     Dynamical RAM for                spsi:       1.56 MB

     Dynamical RAM for      wfcinit/wfcrot:       1.59 MB

     Dynamical RAM for           addusdens:      63.43 MB

     Estimated static dynamical RAM per process >      49.39 MB

     Estimated max dynamical RAM per process >     112.82 MB

     The potential is recalculated from file :
     dft_out/qe.nscf.save/charge-density

     Starting wfcs are   12 randomized atomic wfcs +   21 random wfcs

     Band Structure Calculation
     Davidson diagonalization with overlap

     Computing kpt #:     1  of    47
     total cpu time spent up to now is        1.8 secs

     Computing kpt #:     2  of    47
     total cpu time spent up to now is        3.0 secs

     Computing kpt #:     3  of    47
     total cpu time spent up to now is        4.2 secs

     Computing kpt #:     4  of    47
     total cpu time spent up to now is        5.4 secs

     Computing kpt #:     5  of    47
     total cpu time spent up to now is        6.8 secs

     Computing kpt #:     6  of    47
     total cpu time spent up to now is        8.1 secs

     Computing kpt #:     7  of    47
     total cpu time spent up to now is        9.3 secs

     Computing kpt #:     8  of    47
     total cpu time spent up to now is       10.6 secs

     Computing kpt #:     9  of    47
     total cpu time spent up to now is       12.1 secs

     Computing kpt #:    10  of    47
     total cpu time spent up to now is       13.3 secs

     Computing kpt #:    11  of    47
     total cpu time spent up to now is       14.6 secs

     Computing kpt #:    12  of    47
     total cpu time spent up to now is       16.0 secs

     Computing kpt #:    13  of    47
     total cpu time spent up to now is       17.2 secs

     Computing kpt #:    14  of    47
     total cpu time spent up to now is       18.5 secs

     Computing kpt #:    15  of    47
     total cpu time spent up to now is       19.8 secs

     Computing kpt #:    16  of    47
     total cpu time spent up to now is       21.1 secs

     Computing kpt #:    17  of    47
     total cpu time spent up to now is       22.3 secs

     Computing kpt #:    18  of    47
     total cpu time spent up to now is       23.6 secs

     Computing kpt #:    19  of    47
     total cpu time spent up to now is       24.8 secs

     Computing kpt #:    20  of    47
     total cpu time spent up to now is       26.1 secs

     Computing kpt #:    21  of    47
     total cpu time spent up to now is       27.5 secs

     Computing kpt #:    22  of    47
     total cpu time spent up to now is       28.7 secs

     Computing kpt #:    23  of    47
     total cpu time spent up to now is       30.1 secs

     Computing kpt #:    24  of    47
     total cpu time spent up to now is       31.4 secs

     Computing kpt #:    25  of    47
     total cpu time spent up to now is       32.6 secs

     Computing kpt #:    26  of    47
     total cpu time spent up to now is       33.9 secs

     Computing kpt #:    27  of    47
     total cpu time spent up to now is       35.3 secs

     Computing kpt #:    28  of    47
     total cpu time spent up to now is       36.6 secs

     Computing kpt #:    29  of    47
     total cpu time spent up to now is       37.8 secs

     Computing kpt #:    30  of    47
     total cpu time spent up to now is       39.2 secs

     Computing kpt #:    31  of    47
     total cpu time spent up to now is       40.5 secs

     Computing kpt #:    32  of    47
     total cpu time spent up to now is       42.0 secs

     Computing kpt #:    33  of    47
     total cpu time spent up to now is       43.4 secs

     Computing kpt #:    34  of    47
     total cpu time spent up to now is       44.8 secs

     Computing kpt #:    35  of    47
     total cpu time spent up to now is       46.1 secs

     Computing kpt #:    36  of    47
     total cpu time spent up to now is       47.4 secs

     Computing kpt #:    37  of    47
     total cpu time spent up to now is       48.7 secs

     Computing kpt #:    38  of    47
     total cpu time spent up to now is       50.1 secs

     Computing kpt #:    39  of    47
     total cpu time spent up to now is       51.4 secs

     Computing kpt #:    40  of    47
     total cpu time spent up to now is       52.8 secs

     Computing kpt #:    41  of    47
     total cpu time spent up to now is       54.0 secs

     Computing kpt #:    42  of    47
     total cpu time spent up to now is       55.3 secs

     Computing kpt #:    43  of    47
     total cpu time spent up to now is       56.5 secs

     Computing kpt #:    44  of    47
     total cpu time spent up to now is       57.7 secs

     Computing kpt #:    45  of    47
     total cpu time spent up to now is       59.1 secs

     Computing kpt #:    46  of    47
     total cpu time spent up to now is       60.5 secs

     Computing kpt #:    47  of    47
     total cpu time spent up to now is       61.7 secs

     ethr =  6.25E-12,  avg # of iterations = 39.0

     total cpu time spent up to now is       61.7 secs

     End of band structure calculation

          k = 0.0000 0.0000 0.0000 (  1471 PWs)   bands (ev):

   -70.4221 -37.3862 -37.3862 -37.3862  -8.2954   2.9913   2.9913   2.9913
     6.3135  10.8469  10.8469  10.8469  13.7109  13.7109  16.5974  16.7820
    16.7820  16.7820  20.2111  27.0718  27.0718  27.0718  28.6461  28.6461
    28.7278  28.7278  28.7278  33.9617  33.9617  33.9617  38.7745  38.7745
    38.7745

     occupation numbers 
     1.0000   1.0000   1.0000   1.0000   1.0000   1.0000   1.0000   1.0000
     0.0000   0.0000   0.0000   0.0000   0.0000   0.0000   0.0000   0.0000
     0.0000   0.0000   0.0000   0.0000   0.0000   0.0000   0.0000   0.0000
     0.0000   0.0000   0.0000   0.0000   0.0000   0.0000   0.0000   0.0000
     0.0000

          k =-0.0707 0.0707 0.0707 (  1522 PWs)   bands (ev):

   -70.4221 -37.3865 -37.3863 -37.3863  -8.2370   2.5077   2.9558   2.9558
     6.7849  10.7096  10.9711  10.9711  13.3651  13.3651  16.1476  17.2549
    17.5052  17.5052  21.0500  25.7274  25.9656  25.9656  28.0707  28.0707
    29.4913  29.4913  29.8556  34.0774  34.8280  34.8280  37.4017  38.6388
    38.6388

     occupation numbers 
     1.0000   1.0000   1.0000   1.0000   1.0000   1.0000   1.0000   1.0000
     0.0000   0.0000   0.0000   0.0000   0.0000   0.0000   0.0000   0.0000
     0.0000   0.0000   0.0000   0.0000   0.0000   0.0000   0.0000   0.0000
     0.0000   0.0000   0.0000   0.0000   0.0000   0.0000   0.0000   0.0000
     0.0000

          k =-0.1414 0.1414 0.1414 (  1540 PWs)   bands (ev):

   -70.4221 -37.3872 -37.3864 -37.3864  -8.0767   1.5666   2.8673   2.8673
     7.5805  10.5892  11.1187  11.1187  13.1065  13.1065  15.3529  18.6132
    19.0647  19.0647  22.5943  23.7428  23.7428  24.0432  28.0922  28.0922
    29.8386  29.8386  31.2057  34.4136  34.8154  35.3520  35.3520  38.2778
    38.2778

     occupation numbers 
     1.0000   1.0000   1.0000   1.0000   1.0000   1.0000   1.0000   1.0000
     0.0000   0.0000   0.0000   0.0000   0.0000   0.0000   0.0000   0.0000
     0.0000   0.0000   0.0000   0.0000   0.0000   0.0000   0.0000   0.0000
     0.0000   0.0000   0.0000   0.0000   0.0000   0.0000   0.0000   0.0000
     0.0000

          k =-0.2121 0.2121 0.2121 (  1552 PWs)   bands (ev):

   -70.4221 -37.3880 -37.3865 -37.3865  -7.8610   0.6642   2.7656   2.7656
     7.9900  10.8851  10.9143  10.9143  13.7101  13.7101  14.9421  20.0050
    20.4165  20.4165  21.9571  22.0332  22.0332  25.4702  28.1728  28.1728
    29.9518  29.9518  31.5160  32.6768  33.7866  33.7866  34.9256  37.2063
    37.2063

     occupation numbers 
     1.0000   1.0000   1.0000   1.0000   1.0000   1.0000   1.0000   1.0000
     0.0000   0.0000   0.0000   0.0000   0.0000   0.0000   0.0000   0.0000
     0.0000   0.0000   0.0000   0.0000   0.0000   0.0000   0.0000   0.0000
     0.0000   0.0000   0.0000   0.0000   0.0000   0.0000   0.0000   0.0000
     0.0000

          k =-0.2828 0.2828 0.2828 (  1537 PWs)   bands (ev):

   -70.4221 -37.3887 -37.3866 -37.3866  -7.6689   0.0264   2.6887   2.6887
     8.0245  10.6294  10.6294  11.3023  14.9353  14.9353  15.2353  18.8896
    18.8896  19.0421  23.3640  23.5580  23.5580  27.8430  27.9137  27.9137
    29.0035  29.6739  29.6739  32.2240  32.2240  32.8838  35.4818  36.4043
    36.4043

     occupation numbers 
     1.0000   1.0000   1.0000   1.0000   1.0000   1.0000   1.0000   1.0000
     0.0000   0.0000   0.0000   0.0000   0.0000   0.0000   0.0000   0.0000
     0.0000   0.0000   0.0000   0.0000   0.0000   0.0000   0.0000   0.0000
     0.0000   0.0000   0.0000   0.0000   0.0000   0.0000   0.0000   0.0000
     0.0000

          k = 0.3536-0.3536-0.3536 (  1538 PWs)   bands (ev):

   -70.4221 -37.3890 -37.3867 -37.3867  -7.5904  -0.2052   2.6605   2.6605
     8.0010  10.5166  10.5166  11.4411  15.7475  16.0160  16.0160  17.5496
    17.5496  18.0987  24.9892  24.9892  25.1799  26.8111  27.1293  27.1293
    29.4104  29.4104  29.6461  31.8096  31.8096  32.3772  35.2850  35.7590
    36.1000

     occupation numbers 
     1.0000   1.0000   1.0000   1.0000   1.0000   1.0000   1.0000   1.0000
     0.0000   0.0000   0.0000   0.0000   0.0000   0.0000   0.0000   0.0000
     0.0000   0.0000   0.0000   0.0000   0.0000   0.0000   0.0000   0.0000
     0.0000   0.0000   0.0000   0.0000   0.0000   0.0000   0.0000   0.0000
     0.0000

          k = 0.0000 0.0000 0.1414 (  1523 PWs)   bands (ev):

   -70.4221 -37.3865 -37.3863 -37.3863  -8.2176   2.5011   2.8693   2.8693
     6.9423  10.4768  11.1232  11.1232  12.6682  13.8786  16.9934  17.0713
    17.0713  17.5793  21.4277  25.4191  25.4191  26.7119  27.3410  27.3515
    29.8194  29.8194  30.0612  34.6955  34.6955  35.0257  37.7876  38.0212
    38.0212

     occupation numbers 
     1.0000   1.0000   1.0000   1.0000   1.0000   1.0000   1.0000   1.0000
     0.0000   0.0000   0.0000   0.0000   0.0000   0.0000   0.0000   0.0000
     0.0000   0.0000   0.0000   0.0000   0.0000   0.0000   0.0000   0.0000
     0.0000   0.0000   0.0000   0.0000   0.0000   0.0000   0.0000   0.0000
     0.0000

          k =-0.0707 0.0707 0.2121 (  1535 PWs)   bands (ev):

   -70.4221 -37.3870 -37.3865 -37.3864  -8.0912   1.7971   2.7436   2.7935
     7.6298  10.2262  11.2045  11.3898  12.2501  13.8734  16.2727  17.9833
    18.2970  18.9229  22.8114  23.6205  23.8010  25.7486  26.8926  26.9611
    30.0717  30.2213  31.2981  34.8202  34.9744  35.6946  36.0289  37.5293
    37.7633

     occupation numbers 
     1.0000   1.0000   1.0000   1.0000   1.0000   1.0000   1.0000   1.0000
     0.0000   0.0000   0.0000   0.0000   0.0000   0.0000   0.0000   0.0000
     0.0000   0.0000   0.0000   0.0000   0.0000   0.0000   0.0000   0.0000
     0.0000   0.0000   0.0000   0.0000   0.0000   0.0000   0.0000   0.0000
     0.0000

          k =-0.1414 0.1414 0.2828 (  1553 PWs)   bands (ev):

   -70.4221 -37.3878 -37.3866 -37.3866  -7.8931   0.9413   2.6308   2.6707
     8.1884  10.2938  10.7938  11.3531  12.9384  14.2826  15.6599  19.4056
    19.6327  20.8173  21.5996  21.7351  23.7171  25.4187  26.9185  27.0351
    30.1536  30.3360  31.8923  33.1122  34.3003  34.7230  35.1544  37.1729
    37.2847

     occupation numbers 
     1.0000   1.0000   1.0000   1.0000   1.0000   1.0000   1.0000   1.0000
     0.0000   0.0000   0.0000   0.0000   0.0000   0.0000   0.0000   0.0000
     0.0000   0.0000   0.0000   0.0000   0.0000   0.0000   0.0000   0.0000
     0.0000   0.0000   0.0000   0.0000   0.0000   0.0000   0.0000   0.0000
     0.0000

          k =-0.2121 0.2121 0.3536 (  1557 PWs)   bands (ev):

   -70.4221 -37.3885 -37.3867 -37.3867  -7.6905   0.2516   2.5177   2.5702
     8.3384  10.0832  11.0509  11.2328  13.9402  15.3511  15.6885  18.6701
    18.8428  21.1732  22.2015  22.4817  23.6652  26.7324  27.3263  27.6832
    29.4706  29.9525  30.0115  32.4447  33.2824  33.6433  34.8376  35.9897
    36.6668

     occupation numbers 
     1.0000   1.0000   1.0000   1.0000   1.0000   1.0000   1.0000   1.0000
     0.0000   0.0000   0.0000   0.0000   0.0000   0.0000   0.0000   0.0000
     0.0000   0.0000   0.0000   0.0000   0.0000   0.0000   0.0000   0.0000
     0.0000   0.0000   0.0000   0.0000   0.0000   0.0000   0.0000   0.0000
     0.0000

          k = 0.4243-0.4243-0.2828 (  1543 PWs)   bands (ev):

   -70.4221 -37.3889 -37.3868 -37.3867  -7.5709  -0.1006   2.3929   2.5790
     8.3561   9.8945  10.8082  11.7660  14.9449  16.0343  16.4032  17.4083
    17.6588  19.5319  24.0893  24.3232  25.0463  26.2700  27.5402  27.8049
    28.6829  28.7669  30.0123  32.1328  32.3110  33.1024  34.6647  34.9812
    36.1574

     occupation numbers 
     1.0000   1.0000   1.0000   1.0000   1.0000   1.0000   1.0000   1.0000
     0.0000   0.0000   0.0000   0.0000   0.0000   0.0000   0.0000   0.0000
     0.0000   0.0000   0.0000   0.0000   0.0000   0.0000   0.0000   0.0000
     0.0000   0.0000   0.0000   0.0000   0.0000   0.0000   0.0000   0.0000
     0.0000

          k = 0.3536-0.3536-0.2121 (  1541 PWs)   bands (ev):

   -70.4221 -37.3888 -37.3869 -37.3867  -7.5971  -0.0251   2.3390   2.6533
     8.3948   9.9798  10.7651  11.6845  14.6608  15.5459  16.5582  16.9978
    19.1912  19.3698  22.8848  24.5334  24.7270  26.8030  27.3359  27.8872
    28.8044  29.1213  29.8386  31.9796  32.1318  33.7890  34.8784  35.0629
    36.4496

     occupation numbers 
     1.0000   1.0000   1.0000   1.0000   1.0000   1.0000   1.0000   1.0000
     0.0000   0.0000   0.0000   0.0000   0.0000   0.0000   0.0000   0.0000
     0.0000   0.0000   0.0000   0.0000   0.0000   0.0000   0.0000   0.0000
     0.0000   0.0000   0.0000   0.0000   0.0000   0.0000   0.0000   0.0000
     0.0000

          k = 0.2828-0.2828-0.1414 (  1551 PWs)   bands (ev):

   -70.4221 -37.3883 -37.3868 -37.3866  -7.7545   0.4549   2.3776   2.7698
     8.3996  10.3072  10.9468  11.0966  13.2998  15.0974  15.6742  18.4656
    20.4639  21.0414  21.1051  22.7530  23.2271  26.6101  26.6189  27.8036
    29.4057  30.4487  30.8456  32.4333  33.1914  33.9926  35.6618  35.8612
    36.5464

     occupation numbers 
     1.0000   1.0000   1.0000   1.0000   1.0000   1.0000   1.0000   1.0000
     0.0000   0.0000   0.0000   0.0000   0.0000   0.0000   0.0000   0.0000
     0.0000   0.0000   0.0000   0.0000   0.0000   0.0000   0.0000   0.0000
     0.0000   0.0000   0.0000   0.0000   0.0000   0.0000   0.0000   0.0000
     0.0000

          k = 0.2121-0.2121-0.0707 (  1541 PWs)   bands (ev):

   -70.4221 -37.3875 -37.3866 -37.3864  -7.9649   1.2086   2.5114   2.8890
     8.0947  10.4226  10.9537  11.2226  12.4421  14.0692  15.9127  18.3010
    19.6830  20.6319  21.2896  23.3450  23.9657  24.6389  26.4481  27.5691
    29.6735  30.6272  32.3505  33.5555  34.0296  35.0004  35.6863  37.4398
    37.5814

     occupation numbers 
     1.0000   1.0000   1.0000   1.0000   1.0000   1.0000   1.0000   1.0000
     0.0000   0.0000   0.0000   0.0000   0.0000   0.0000   0.0000   0.0000
     0.0000   0.0000   0.0000   0.0000   0.0000   0.0000   0.0000   0.0000
     0.0000   0.0000   0.0000   0.0000   0.0000   0.0000   0.0000   0.0000
     0.0000

          k = 0.1414-0.1414 0.0000 (  1538 PWs)   bands (ev):

   -70.4221 -37.3868 -37.3864 -37.3863  -8.1445   2.0069   2.7320   2.9629
     7.3651  10.4880  11.1124  11.1661  12.6154  13.5326  16.3980  17.1175
    18.1757  18.8827  22.1396  23.6906  25.2230  25.9672  26.5002  27.8037
    29.5476  30.2744  31.0217  34.5740  35.2199  35.3951  36.2661  37.8724
    38.2755

     occupation numbers 
     1.0000   1.0000   1.0000   1.0000   1.0000   1.0000   1.0000   1.0000
     0.0000   0.0000   0.0000   0.0000   0.0000   0.0000   0.0000   0.0000
     0.0000   0.0000   0.0000   0.0000   0.0000   0.0000   0.0000   0.0000
     0.0000   0.0000   0.0000   0.0000   0.0000   0.0000   0.0000   0.0000
     0.0000

          k = 0.0000 0.0000 0.2828 (  1535 PWs)   bands (ev):

   -70.4221 -37.3872 -37.3866 -37.3866  -8.0044   1.6219   2.5768   2.5768
     7.9337   9.7451  11.3571  11.8749  11.8749  14.3752  17.8690  17.8690
    18.0208  18.9689  23.2099  23.2099  24.0981  24.8375  25.0203  27.7181
    30.6463  30.6463  30.7161  34.9222  34.9222  35.0641  36.2616  36.6827
    37.7484

     occupation numbers 
     1.0000   1.0000   1.0000   1.0000   1.0000   1.0000   1.0000   1.0000
     0.0000   0.0000   0.0000   0.0000   0.0000   0.0000   0.0000   0.0000
     0.0000   0.0000   0.0000   0.0000   0.0000   0.0000   0.0000   0.0000
     0.0000   0.0000   0.0000   0.0000   0.0000   0.0000   0.0000   0.0000
     0.0000

          k =-0.0707 0.0707 0.3536 (  1551 PWs)   bands (ev):

   -70.4221 -37.3877 -37.3868 -37.3868  -7.8407   1.0653   2.3993   2.4341
     8.1778   9.5985  10.9239  12.1441  12.7650  14.8055  17.2065  18.6908
    19.4886  20.2865  21.6304  21.8329  24.1995  24.6851  25.6904  27.4501
    30.1560  30.7489  31.3104  33.3877  33.9297  34.3719  35.7755  35.9577
    37.6679

     occupation numbers 
     1.0000   1.0000   1.0000   1.0000   1.0000   1.0000   1.0000   1.0000
     0.0000   0.0000   0.0000   0.0000   0.0000   0.0000   0.0000   0.0000
     0.0000   0.0000   0.0000   0.0000   0.0000   0.0000   0.0000   0.0000
     0.0000   0.0000   0.0000   0.0000   0.0000   0.0000   0.0000   0.0000
     0.0000

          k =-0.1414 0.1414 0.4243 (  1544 PWs)   bands (ev):

   -70.4221 -37.3883 -37.3870 -37.3869  -7.6534   0.5077   2.1338   2.3623
     8.2855   9.8135  10.8113  11.9482  13.8896  15.7731  16.8449  18.4626
    18.9852  21.3776  21.6836  22.5499  23.6774  25.0802  25.6719  28.5221
    28.7796  30.4799  30.7226  32.5558  33.1567  34.2128  34.5723  35.3237
    36.2753

     occupation numbers 
     1.0000   1.0000   1.0000   1.0000   1.0000   1.0000   1.0000   1.0000
     0.0000   0.0000   0.0000   0.0000   0.0000   0.0000   0.0000   0.0000
     0.0000   0.0000   0.0000   0.0000   0.0000   0.0000   0.0000   0.0000
     0.0000   0.0000   0.0000   0.0000   0.0000   0.0000   0.0000   0.0000
     0.0000

          k = 0.4950-0.4950-0.2121 (  1559 PWs)   bands (ev):

   -70.4221 -37.3887 -37.3872 -37.3869  -7.5178   0.1626   1.8574   2.3810
     8.4126   9.7974  11.4290  11.6267  14.4988  16.1194  17.3345  17.6419
    17.8748  21.5015  22.7872  23.4302  24.1023  25.7104  25.8613  27.5990
    29.1831  29.6879  30.4852  32.1514  32.3108  33.5373  33.6460  34.8730
    35.8329

     occupation numbers 
     1.0000   1.0000   1.0000   1.0000   1.0000   1.0000   1.0000   1.0000
     0.0000   0.0000   0.0000   0.0000   0.0000   0.0000   0.0000   0.0000
     0.0000   0.0000   0.0000   0.0000   0.0000   0.0000   0.0000   0.0000
     0.0000   0.0000   0.0000   0.0000   0.0000   0.0000   0.0000   0.0000
     0.0000

          k = 0.4243-0.4243-0.1414 (  1555 PWs)   bands (ev):

   -70.4221 -37.3887 -37.3873 -37.3868  -7.4995   0.1329   1.6861   2.4844
     8.7176   9.6731  11.4211  11.7720  14.6010  14.8941  16.9989  18.2464
    19.5231  20.0937  22.3196  23.6844  24.7999  26.2484  27.0295  27.3125
    28.4502  29.2207  30.9511  31.3215  32.1594  33.0769  33.5596  35.0973
    36.2015

     occupation numbers 
     1.0000   1.0000   1.0000   1.0000   1.0000   1.0000   1.0000   1.0000
     0.0000   0.0000   0.0000   0.0000   0.0000   0.0000   0.0000   0.0000
     0.0000   0.0000   0.0000   0.0000   0.0000   0.0000   0.0000   0.0000
     0.0000   0.0000   0.0000   0.0000   0.0000   0.0000   0.0000   0.0000
     0.0000

          k = 0.3536-0.3536-0.0707 (  1554 PWs)   bands (ev):

   -70.4221 -37.3884 -37.3873 -37.3867  -7.6078   0.4001   1.7120   2.6416
     9.1646   9.6078  11.1060  11.4029  13.2014  16.1406  16.9048  17.4355
    19.8145  21.2702  21.5315  23.6926  23.8199  25.7842  26.0189  28.5277
    28.8720  29.8819  30.7144  31.3459  32.2684  34.0429  34.2542  35.8492
    37.0706

     occupation numbers 
     1.0000   1.0000   1.0000   1.0000   1.0000   1.0000   1.0000   1.0000
     0.0000   0.0000   0.0000   0.0000   0.0000   0.0000   0.0000   0.0000
     0.0000   0.0000   0.0000   0.0000   0.0000   0.0000   0.0000   0.0000
     0.0000   0.0000   0.0000   0.0000   0.0000   0.0000   0.0000   0.0000
     0.0000

          k = 0.2828-0.2828 0.0000 (  1554 PWs)   bands (ev):

   -70.4221 -37.3879 -37.3870 -37.3865  -7.7884   0.8096   2.0098   2.7986
     8.9091  10.0277  10.6149  11.4736  12.3153  15.4559  17.0599  17.6036
    19.2789  21.1004  22.2181  23.2509  24.0157  24.7293  25.8941  26.9916
    29.5981  30.9040  31.8679  32.4544  33.3621  34.1515  35.3631  36.9803
    37.0523

     occupation numbers 
     1.0000   1.0000   1.0000   1.0000   1.0000   1.0000   1.0000   1.0000
     0.0000   0.0000   0.0000   0.0000   0.0000   0.0000   0.0000   0.0000
     0.0000   0.0000   0.0000   0.0000   0.0000   0.0000   0.0000   0.0000
     0.0000   0.0000   0.0000   0.0000   0.0000   0.0000   0.0000   0.0000
     0.0000

          k = 0.0000 0.0000 0.4243 (  1556 PWs)   bands (ev):

   -70.4221 -37.3880 -37.3869 -37.3869  -7.7189   0.8405   2.2571   2.2571
     7.7361   9.1340  11.7320  12.9556  12.9556  15.1733  18.5988  18.5988
    19.1348  20.6113  21.7948  21.7948  22.7144  23.0013  26.8264  28.9235
    29.9823  30.5108  30.5108  32.8584  32.8584  33.1543  34.3150  36.5941
    38.3322

     occupation numbers 
     1.0000   1.0000   1.0000   1.0000   1.0000   1.0000   1.0000   1.0000
     0.0000   0.0000   0.0000   0.0000   0.0000   0.0000   0.0000   0.0000
     0.0000   0.0000   0.0000   0.0000   0.0000   0.0000   0.0000   0.0000
     0.0000   0.0000   0.0000   0.0000   0.0000   0.0000   0.0000   0.0000
     0.0000

          k =-0.0707 0.0707 0.4950 (  1561 PWs)   bands (ev):

   -70.4221 -37.3884 -37.3871 -37.3870  -7.5684   0.5151   2.0036   2.1572
     7.5464   9.1076  11.9456  13.1538  13.9839  15.9954  17.8066  18.1898
    19.7777  20.7221  21.2798  22.3893  23.0009  23.5122  26.6849  28.2023
    29.4342  29.6419  30.9015  31.8743  32.4787  33.0881  34.3847  35.9393
    36.8651

     occupation numbers 
     1.0000   1.0000   1.0000   1.0000   1.0000   1.0000   1.0000   1.0000
     0.0000   0.0000   0.0000   0.0000   0.0000   0.0000   0.0000   0.0000
     0.0000   0.0000   0.0000   0.0000   0.0000   0.0000   0.0000   0.0000
     0.0000   0.0000   0.0000   0.0000   0.0000   0.0000   0.0000   0.0000
     0.0000

          k = 0.5657-0.5657-0.1414 (  1554 PWs)   bands (ev):

   -70.4220 -37.3886 -37.3874 -37.3871  -7.4478   0.3480   1.5578   2.1611
     7.6687   9.5719  11.9079  12.8387  14.5980  16.3064  17.3881  17.8957
    19.3281  21.2747  21.5776  22.9055  24.3907  24.5653  25.6478  27.0643
    28.7747  29.6120  30.1463  32.0981  32.4437  33.0986  34.4988  34.5353
    36.4579

     occupation numbers 
     1.0000   1.0000   1.0000   1.0000   1.0000   1.0000   1.0000   1.0000
     0.0000   0.0000   0.0000   0.0000   0.0000   0.0000   0.0000   0.0000
     0.0000   0.0000   0.0000   0.0000   0.0000   0.0000   0.0000   0.0000
     0.0000   0.0000   0.0000   0.0000   0.0000   0.0000   0.0000   0.0000
     0.0000

          k = 0.4950-0.4950-0.0707 (  1555 PWs)   bands (ev):

   -70.4220 -37.3885 -37.3877 -37.3870  -7.4108   0.4154   1.1363   2.2674
     8.0150  10.1465  11.9180  12.4377  14.0287  14.8260  18.2586  19.2064
    19.6594  20.6944  21.8788  22.1999  23.9360  26.0022  26.3177  27.8642
    28.3911  29.0176  30.5973  30.7355  32.1675  33.1953  33.6801  34.1616
    36.7679

     occupation numbers 
     1.0000   1.0000   1.0000   1.0000   1.0000   1.0000   1.0000   1.0000
     0.0000   0.0000   0.0000   0.0000   0.0000   0.0000   0.0000   0.0000
     0.0000   0.0000   0.0000   0.0000   0.0000   0.0000   0.0000   0.0000
     0.0000   0.0000   0.0000   0.0000   0.0000   0.0000   0.0000   0.0000
     0.0000

          k = 0.4243-0.4243-0.0000 (  1546 PWs)   bands (ev):

   -70.4221 -37.3884 -37.3878 -37.3869  -7.4744   0.4780   1.1463   2.4471
     8.5814  10.2192  11.3951  11.9914  13.6599  14.5802  18.6387  18.8312
    19.2813  21.5092  21.6154  21.9582  23.9195  26.2918  27.1342  27.4702
    29.2173  29.6272  29.9728  30.7860  31.8567  33.5056  33.5361  34.1136
    37.3669

     occupation numbers 
     1.0000   1.0000   1.0000   1.0000   1.0000   1.0000   1.0000   1.0000
     0.0000   0.0000   0.0000   0.0000   0.0000   0.0000   0.0000   0.0000
     0.0000   0.0000   0.0000   0.0000   0.0000   0.0000   0.0000   0.0000
     0.0000   0.0000   0.0000   0.0000   0.0000   0.0000   0.0000   0.0000
     0.0000

          k = 0.0000 0.0000 0.5657 (  1552 PWs)   bands (ev):

   -70.4220 -37.3887 -37.3872 -37.3872  -7.4659   0.3139   2.0243   2.0243
     7.0002   8.6909  13.2044  14.2342  14.2342  16.1654  17.7472  17.7472
    19.4954  20.7744  21.0546  22.7689  22.7689  23.8122  27.5709  27.7745
    28.1731  28.1731  30.8752  31.5536  32.4828  32.4828  34.4899  36.5585
    37.8856

     occupation numbers 
     1.0000   1.0000   1.0000   1.0000   1.0000   1.0000   1.0000   1.0000
     0.0000   0.0000   0.0000   0.0000   0.0000   0.0000   0.0000   0.0000
     0.0000   0.0000   0.0000   0.0000   0.0000   0.0000   0.0000   0.0000
     0.0000   0.0000   0.0000   0.0000   0.0000   0.0000   0.0000   0.0000
     0.0000

          k = 0.6364-0.6364-0.0707 (  1564 PWs)   bands (ev):

   -70.4220 -37.3889 -37.3874 -37.3872  -7.3871   0.2238   1.7611   1.9991
     6.9945   8.8177  13.3426  14.2491  14.8296  16.5580  17.1467  17.4212
    19.5705  20.3850  21.1304  23.2370  24.1641  25.1183  26.2203  26.9624
    27.2458  28.0125  29.8787  31.2545  32.4594  33.5592  35.4616  35.8885
    37.0996

     occupation numbers 
     1.0000   1.0000   1.0000   1.0000   1.0000   1.0000   1.0000   1.0000
     0.0000   0.0000   0.0000   0.0000   0.0000   0.0000   0.0000   0.0000
     0.0000   0.0000   0.0000   0.0000   0.0000   0.0000   0.0000   0.0000
     0.0000   0.0000   0.0000   0.0000   0.0000   0.0000   0.0000   0.0000
     0.0000

          k = 0.5657-0.5657 0.0000 (  1554 PWs)   bands (ev):

   -70.4220 -37.3887 -37.3876 -37.3872  -7.3663   0.3562   1.2781   2.0875
     7.3976   9.4694  12.8945  13.5111  14.1186  15.4750  17.9255  18.9275
    19.9590  20.6761  21.0471  22.0949  24.8561  25.8305  26.1515  26.6084
    27.6707  28.2339  29.9110  31.3606  31.9789  33.4362  34.5471  35.0484
    38.0016

     occupation numbers 
     1.0000   1.0000   1.0000   1.0000   1.0000   1.0000   1.0000   1.0000
     0.0000   0.0000   0.0000   0.0000   0.0000   0.0000   0.0000   0.0000
     0.0000   0.0000   0.0000   0.0000   0.0000   0.0000   0.0000   0.0000
     0.0000   0.0000   0.0000   0.0000   0.0000   0.0000   0.0000   0.0000
     0.0000

          k = 0.0000 0.0000-0.7071 (  1572 PWs)   bands (ev):

   -70.4220 -37.3890 -37.3873 -37.3873  -7.3629   0.1265   1.9403   1.9403
     6.6975   8.5328  14.0683  15.2012  15.2012  16.7072  16.7072  16.7972
    18.8174  19.8214  21.7370  24.6479  24.6479  24.6963  25.8428  25.8428
    27.1571  27.5761  29.4858  31.7069  32.5764  32.5764  36.5176  37.0851
    37.9663

     occupation numbers 
     1.0000   1.0000   1.0000   1.0000   1.0000   1.0000   1.0000   1.0000
     0.0000   0.0000   0.0000   0.0000   0.0000   0.0000   0.0000   0.0000
     0.0000   0.0000   0.0000   0.0000   0.0000   0.0000   0.0000   0.0000
     0.0000   0.0000   0.0000   0.0000   0.0000   0.0000   0.0000   0.0000
     0.0000

          k = 0.0000 0.1414 0.2828 (  1545 PWs)   bands (ev):

   -70.4221 -37.3875 -37.3867 -37.3865  -7.9456   1.2947   2.4057   2.7508
     8.2250   9.9864  10.8258  11.7445  12.2634  14.3770  16.8912  17.6978
    19.6375  20.1801  21.3930  23.3051  24.4483  24.8444  26.2220  26.5825
    29.3940  31.2758  32.1492  33.4994  34.4268  34.9920  36.1317  36.8267
    37.6235

     occupation numbers 
     1.0000   1.0000   1.0000   1.0000   1.0000   1.0000   1.0000   1.0000
     0.0000   0.0000   0.0000   0.0000   0.0000   0.0000   0.0000   0.0000
     0.0000   0.0000   0.0000   0.0000   0.0000   0.0000   0.0000   0.0000
     0.0000   0.0000   0.0000   0.0000   0.0000   0.0000   0.0000   0.0000
     0.0000

          k =-0.0707 0.2121 0.3536 (  1555 PWs)   bands (ev):

   -70.4221 -37.3881 -37.3870 -37.3866  -7.7517   0.6922   2.1265   2.6378
     8.6873   9.9388  10.5312  11.6855  12.9574  15.4775  16.6062  18.2233
    19.6934  20.8337  21.8423  22.7426  23.6539  25.2419  26.2869  27.3923
    29.1622  30.2018  31.9788  32.7872  33.4925  34.0424  35.2980  36.2745
    36.6259

     occupation numbers 
     1.0000   1.0000   1.0000   1.0000   1.0000   1.0000   1.0000   1.0000
     0.0000   0.0000   0.0000   0.0000   0.0000   0.0000   0.0000   0.0000
     0.0000   0.0000   0.0000   0.0000   0.0000   0.0000   0.0000   0.0000
     0.0000   0.0000   0.0000   0.0000   0.0000   0.0000   0.0000   0.0000
     0.0000

          k = 0.5657-0.4243-0.2828 (  1551 PWs)   bands (ev):

   -70.4221 -37.3886 -37.3871 -37.3868  -7.5812   0.2132   1.9776   2.5086
     8.8317   9.5421  11.2342  11.4666  14.0180  16.2171  16.6418  17.2753
    19.1499  21.3014  21.7498  23.9168  24.0388  25.9276  26.5403  27.7916
    28.9759  29.5827  30.4480  31.6192  33.0244  33.7392  34.3802  35.3779
    36.1660

     occupation numbers 
     1.0000   1.0000   1.0000   1.0000   1.0000   1.0000   1.0000   1.0000
     0.0000   0.0000   0.0000   0.0000   0.0000   0.0000   0.0000   0.0000
     0.0000   0.0000   0.0000   0.0000   0.0000   0.0000   0.0000   0.0000
     0.0000   0.0000   0.0000   0.0000   0.0000   0.0000   0.0000   0.0000
     0.0000

          k = 0.4950-0.3536-0.2121 (  1544 PWs)   bands (ev):

   -70.4221 -37.3888 -37.3872 -37.3868  -7.5123   0.0317   1.9339   2.4523
     8.8922   9.3287  11.3141  11.8096  14.6848  15.5699  16.9820  17.2928
    18.9486  20.0797  23.3047  23.6485  25.2297  26.0843  26.8768  27.4230
    28.5843  28.7566  30.6735  31.6612  32.4658  33.6415  34.1689  34.2925
    36.0348

     occupation numbers 
     1.0000   1.0000   1.0000   1.0000   1.0000   1.0000   1.0000   1.0000
     0.0000   0.0000   0.0000   0.0000   0.0000   0.0000   0.0000   0.0000
     0.0000   0.0000   0.0000   0.0000   0.0000   0.0000   0.0000   0.0000
     0.0000   0.0000   0.0000   0.0000   0.0000   0.0000   0.0000   0.0000
     0.0000

          k = 0.0000 0.1414 0.4243 (  1559 PWs)   bands (ev):

   -70.4221 -37.3881 -37.3871 -37.3868  -7.6822   0.7139   2.0536   2.3478
     8.1478   9.5188  10.9107  12.7659  13.1168  15.7205  17.6276  18.2932
    19.4288  21.0319  21.2893  22.3938  23.1511  24.5865  25.9749  28.4745
    29.3494  29.4796  31.5789  32.6413  33.3631  33.8015  34.8470  35.6555
    36.7415

     occupation numbers 
     1.0000   1.0000   1.0000   1.0000   1.0000   1.0000   1.0000   1.0000
     0.0000   0.0000   0.0000   0.0000   0.0000   0.0000   0.0000   0.0000
     0.0000   0.0000   0.0000   0.0000   0.0000   0.0000   0.0000   0.0000
     0.0000   0.0000   0.0000   0.0000   0.0000   0.0000   0.0000   0.0000
     0.0000

          k = 0.6364-0.4950-0.2121 (  1555 PWs)   bands (ev):

   -70.4221 -37.3885 -37.3873 -37.3870  -7.5268   0.4253   1.7162   2.2161
     8.2367   9.8197  10.8397  12.6317  14.0467  16.6076  16.9840  18.0720
    19.0750  20.9926  22.0958  22.9866  24.0206  25.0388  25.5548  27.5025
    28.5286  29.8482  31.2659  31.7613  33.0608  33.7077  33.8263  35.3248
    36.1758

     occupation numbers 
     1.0000   1.0000   1.0000   1.0000   1.0000   1.0000   1.0000   1.0000
     0.0000   0.0000   0.0000   0.0000   0.0000   0.0000   0.0000   0.0000
     0.0000   0.0000   0.0000   0.0000   0.0000   0.0000   0.0000   0.0000
     0.0000   0.0000   0.0000   0.0000   0.0000   0.0000   0.0000   0.0000
     0.0000

          k = 0.5657-0.4243-0.1414 (  1552 PWs)   bands (ev):

   -70.4220 -37.3886 -37.3875 -37.3870  -7.4405   0.3081   1.4324   2.1926
     8.4318   9.9169  11.3260  12.2770  14.1538  15.8822  17.1527  18.5348
    19.3835  20.9505  22.2933  23.1190  24.3139  25.0733  26.5879  27.2465
    28.3220  29.5127  30.4178  31.8467  32.2260  33.1990  33.9567  35.1504
    35.8652

     occupation numbers 
     1.0000   1.0000   1.0000   1.0000   1.0000   1.0000   1.0000   1.0000
     0.0000   0.0000   0.0000   0.0000   0.0000   0.0000   0.0000   0.0000
     0.0000   0.0000   0.0000   0.0000   0.0000   0.0000   0.0000   0.0000
     0.0000   0.0000   0.0000   0.0000   0.0000   0.0000   0.0000   0.0000
     0.0000

          k = 0.4950-0.3536-0.0707 (  1554 PWs)   bands (ev):

   -70.4221 -37.3885 -37.3876 -37.3869  -7.4650   0.3739   1.3425   2.3042
     8.7713   9.8158  11.2481  12.1102  14.0017  15.1118  17.7970  18.7033
    19.5236  20.8949  21.8094  22.7604  24.5300  25.8958  26.5498  27.1771
    28.4405  29.6896  30.5323  31.4755  32.1432  32.7485  34.4257  35.1755
    35.9096

     occupation numbers 
     1.0000   1.0000   1.0000   1.0000   1.0000   1.0000   1.0000   1.0000
     0.0000   0.0000   0.0000   0.0000   0.0000   0.0000   0.0000   0.0000
     0.0000   0.0000   0.0000   0.0000   0.0000   0.0000   0.0000   0.0000
     0.0000   0.0000   0.0000   0.0000   0.0000   0.0000   0.0000   0.0000
     0.0000

          k = 0.4243-0.2828 0.0000 (  1549 PWs)   bands (ev):

   -70.4221 -37.3883 -37.3874 -37.3868  -7.5875   0.5149   1.5967   2.4872
     9.1034   9.7085  10.5158  12.1212  13.1982  16.2656  17.1627  18.0056
    19.1157  21.1603  22.2265  23.0015  24.1634  25.1338  25.7789  28.0389
    29.1753  29.4219  30.8935  31.9060  32.3285  34.0316  34.9683  35.6908
    36.3170

     occupation numbers 
     1.0000   1.0000   1.0000   1.0000   1.0000   1.0000   1.0000   1.0000
     0.0000   0.0000   0.0000   0.0000   0.0000   0.0000   0.0000   0.0000
     0.0000   0.0000   0.0000   0.0000   0.0000   0.0000   0.0000   0.0000
     0.0000   0.0000   0.0000   0.0000   0.0000   0.0000   0.0000   0.0000
     0.0000

          k = 0.7071-0.5657-0.1414 (  1558 PWs)   bands (ev):

   -70.4220 -37.3887 -37.3873 -37.3872  -7.4522   0.3602   1.8010   1.9776
     7.4438   9.1431  12.1319  13.8034  14.3306  16.7932  17.0850  17.8187
    19.8593  20.4714  21.6884  22.2782  23.7864  24.8561  26.4076  26.9659
    27.8391  29.3239  30.7541  31.4754  32.5312  33.5706  34.7715  35.2175
    36.7902

     occupation numbers 
     1.0000   1.0000   1.0000   1.0000   1.0000   1.0000   1.0000   1.0000
     0.0000   0.0000   0.0000   0.0000   0.0000   0.0000   0.0000   0.0000
     0.0000   0.0000   0.0000   0.0000   0.0000   0.0000   0.0000   0.0000
     0.0000   0.0000   0.0000   0.0000   0.0000   0.0000   0.0000   0.0000
     0.0000

          k = 0.6364-0.4950-0.0707 (  1559 PWs)   bands (ev):

   -70.4220 -37.3886 -37.3876 -37.3872  -7.3814   0.3994   1.3640   1.9391
     7.7242   9.6668  11.9703  13.0509  14.6721  16.1856  17.2007  18.5176
    20.1805  20.4308  21.9372  22.6285  24.1408  25.1716  26.2931  26.7724
    27.3635  29.5118  29.8535  31.2839  32.6771  33.4072  34.2323  35.1433
    36.5360

     occupation numbers 
     1.0000   1.0000   1.0000   1.0000   1.0000   1.0000   1.0000   1.0000
     0.0000   0.0000   0.0000   0.0000   0.0000   0.0000   0.0000   0.0000
     0.0000   0.0000   0.0000   0.0000   0.0000   0.0000   0.0000   0.0000
     0.0000   0.0000   0.0000   0.0000   0.0000   0.0000   0.0000   0.0000
     0.0000

          k = 0.5657-0.4243 0.0000 (  1560 PWs)   bands (ev):

   -70.4220 -37.3885 -37.3879 -37.3871  -7.3869   0.5797   0.9797   2.0781
     8.1842  10.2364  11.7160  12.1877  14.3914  14.9997  18.2593  19.2204
    19.9044  20.7537  21.9265  22.2002  23.9816  25.3345  26.5325  27.1424
    28.1233  29.7723  30.5030  30.9412  32.0631  32.7098  33.6095  35.1821
    36.2149

     occupation numbers 
     1.0000   1.0000   1.0000   1.0000   1.0000   1.0000   1.0000   1.0000
     0.0000   0.0000   0.0000   0.0000   0.0000   0.0000   0.0000   0.0000
     0.0000   0.0000   0.0000   0.0000   0.0000   0.0000   0.0000   0.0000
     0.0000   0.0000   0.0000   0.0000   0.0000   0.0000   0.0000   0.0000
     0.0000

          k = 0.0000 0.1414-0.7071 (  1564 PWs)   bands (ev):

   -70.4220 -37.3888 -37.3874 -37.3873  -7.3598   0.2455   1.7128   1.8239
     7.1572   9.0034  13.2955  13.5917  15.3048  16.6830  16.7662  17.5737
    19.8341  20.3964  21.4371  23.0876  24.4480  25.3975  26.1745  26.7608
    27.0707  28.0059  29.7614  30.2633  33.3376  33.8985  35.1514  35.5245
    36.6994

     occupation numbers 
     1.0000   1.0000   1.0000   1.0000   1.0000   1.0000   1.0000   1.0000
     0.0000   0.0000   0.0000   0.0000   0.0000   0.0000   0.0000   0.0000
     0.0000   0.0000   0.0000   0.0000   0.0000   0.0000   0.0000   0.0000
     0.0000   0.0000   0.0000   0.0000   0.0000   0.0000   0.0000   0.0000
     0.0000

          k = 0.7071-0.4243-0.1414 (  1562 PWs)   bands (ev):

   -70.4220 -37.3885 -37.3877 -37.3871  -7.4199   0.4846   1.3171   1.9698
     8.3910  10.2800  10.6246  12.7172  14.4634  15.6522  18.0223  18.4240
    19.5102  20.7399  21.9788  23.2963  24.1218  25.1892  26.0255  27.0348
    27.3153  29.3848  31.5706  32.1139  32.7042  32.8496  33.3947  34.7648
    36.4685

     occupation numbers 
     1.0000   1.0000   1.0000   1.0000   1.0000   1.0000   1.0000   1.0000
     0.0000   0.0000   0.0000   0.0000   0.0000   0.0000   0.0000   0.0000
     0.0000   0.0000   0.0000   0.0000   0.0000   0.0000   0.0000   0.0000
     0.0000   0.0000   0.0000   0.0000   0.0000   0.0000   0.0000   0.0000
     0.0000

          k = 0.6364-0.3536-0.0707 (  1566 PWs)   bands (ev):

   -70.4220 -37.3884 -37.3878 -37.3872  -7.3779   0.5744   1.1151   1.8476
     8.4560  10.3968  11.1062  11.9591  14.7206  16.0991  17.1251  18.9429
    19.8807  20.9243  22.4869  23.1776  23.9341  24.6522  25.5933  26.5478
    28.6329  30.1929  30.4819  31.5551  31.8899  33.1367  33.7617  34.3417
    36.4473

     occupation numbers 
     1.0000   1.0000   1.0000   1.0000   1.0000   1.0000   1.0000   1.0000
     0.0000   0.0000   0.0000   0.0000   0.0000   0.0000   0.0000   0.0000
     0.0000   0.0000   0.0000   0.0000   0.0000   0.0000   0.0000   0.0000
     0.0000   0.0000   0.0000   0.0000   0.0000   0.0000   0.0000   0.0000
     0.0000

          k = 0.0000 0.2828-0.7071 (  1564 PWs)   bands (ev):

   -70.4220 -37.3885 -37.3877 -37.3873  -7.3547   0.5555   1.2425   1.6557
     8.1364  10.2029  11.7640  11.7699  15.5088  16.6783  16.6864  17.9152
    20.5107  21.1916  22.3516  23.0473  24.0266  24.8018  24.9166  26.0705
    29.3008  29.7225  29.9559  31.4150  32.2065  32.5606  34.1117  35.1748
    35.9406

     occupation numbers 
     1.0000   1.0000   1.0000   1.0000   1.0000   1.0000   1.0000   1.0000
     0.0000   0.0000   0.0000   0.0000   0.0000   0.0000   0.0000   0.0000
     0.0000   0.0000   0.0000   0.0000   0.0000   0.0000   0.0000   0.0000
     0.0000   0.0000   0.0000   0.0000   0.0000   0.0000   0.0000   0.0000
     0.0000

     the Fermi energy is     4.7526 ev
     (compare with:     4.7024 eV, computed in scf)

     Writing output data file dft_out/qe.nscf.save/

     init_run     :      0.44s CPU      0.53s WALL (       1 calls)
     electrons    :     60.67s CPU     61.02s WALL (       1 calls)

     Called by init_run:
     wfcinit      :      0.00s CPU      0.00s WALL (       1 calls)
     wfcinit:atom :      0.00s CPU      0.01s WALL (      47 calls)
     wfcinit:wfcr :      1.67s CPU      1.70s WALL (      47 calls)
     potinit      :      0.02s CPU      0.04s WALL (       1 calls)
     hinit0       :      0.34s CPU      0.35s WALL (       1 calls)

     Called by electrons:
     c_bands      :     60.67s CPU     61.01s WALL (       1 calls)
     v_of_rho     :      0.02s CPU      0.03s WALL (       1 calls)
     v_h          :      0.02s CPU      0.00s WALL (       1 calls)
     v_xc         :      0.00s CPU      0.03s WALL (       1 calls)
     newd         :      0.06s CPU      0.13s WALL (       1 calls)

     Called by c_bands:
     init_us_2    :      0.06s CPU      0.02s WALL (      47 calls)
     cegterg      :     58.81s CPU     59.13s WALL (     109 calls)

     Called by sum_band:

     Called by *egterg:
     cdiaghg      :      2.73s CPU      2.51s WALL (    1879 calls)
     cegterg:over :      6.89s CPU      7.31s WALL (    1832 calls)
     cegterg:upda :      4.06s CPU      4.13s WALL (    1832 calls)
     cegterg:last :     12.11s CPU     12.12s WALL (    1107 calls)
     h_psi        :     31.05s CPU     31.05s WALL (    1988 calls)
     s_psi        :      2.58s CPU      2.58s WALL (    1988 calls)
     g_psi        :      0.08s CPU      0.14s WALL (    1832 calls)

     Called by h_psi:
     h_psi:calbec :      2.45s CPU      2.56s WALL (    1988 calls)
     vloc_psi     :     26.05s CPU     25.83s WALL (    1988 calls)
     add_vuspsi   :      2.50s CPU      2.58s WALL (    1988 calls)

     General routines
     calbec       :      2.45s CPU      2.56s WALL (    1988 calls)
     fft          :      0.00s CPU      0.01s WALL (      13 calls)
     ffts         :      0.00s CPU      0.00s WALL (       1 calls)
     fftw         :     23.70s CPU     23.45s WALL (   75292 calls)
     interpolate  :      0.00s CPU      0.00s WALL (       1 calls)

     Parallel routines

     PWSCF        :   1m 1.28s CPU   1m 2.04s WALL


   This run was terminated on:   9:31:46  25Jun2021            

=------------------------------------------------------------------------------=
   JOB DONE.
=------------------------------------------------------------------------------=
