<PP_INFO>
Generated using Vanderbilt code, version   7  3  6                              
Author: kfg        Generation date:   22    9   15                              
Automatically converted from original format                                    
    1        The Pseudo was generated with a Scalar-Relativistic Calculation
  1.50000000000E+00    Local Potential cutoff radius
nl pn  l   occ               Rcut            Rcut US             E pseu
3S  3  0  2.00      0.00000000000      1.50000000000     -1.26376527600
3P  3  1  4.00      0.00000000000      1.50000000000     -0.51290544400
</PP_INFO>


<PP_HEADER>
   0                   Version Number
  S                    Element
   US                  Ultrasoft pseudopotential
    T                  Nonlinear Core Correction
SLA  PW   PSX  PSC     PBEsol  Exchange-Correlation functional
    6.00000000000      Z valence
  -23.69028114580      Total energy
    0.00000    0.00000 Suggested cutoff for wfc and rho
    2                  Max angular momentum component
  907                  Number of points in mesh
    2    6             Number of Wavefunctions, Number of Projectors
 Wavefunctions         nl  l   occ
                       3S  0  2.00
                       3P  1  4.00
</PP_HEADER>


<PP_MESH>
  <PP_R>
  0.00000000000E+00  9.57836849149E-07  1.93177142084E-06  2.92207425872E-06
  3.92902045327E-06  4.95288971825E-06  5.99396646837E-06  7.05253989832E-06
  8.12890406306E-06  9.22335795957E-06  1.03362056099E-05  1.14677561454E-05
  1.26183238931E-05  1.37882284626E-05  1.49777948347E-05  1.61873534523E-05
  1.74172403116E-05  1.86677970559E-05  1.99393710699E-05  2.12323155770E-05
  2.25469897366E-05  2.38837587445E-05  2.52429939339E-05  2.66250728791E-05
  2.80303794996E-05  2.94593041675E-05  3.09122438154E-05  3.23896020471E-05
  3.38917892493E-05  3.54192227060E-05  3.69723267139E-05  3.85515327010E-05
  4.01572793456E-05  4.17900126989E-05  4.34501863083E-05  4.51382613439E-05
  4.68547067262E-05  4.85999992568E-05  5.03746237502E-05  5.21790731692E-05
  5.40138487612E-05  5.58794601981E-05  5.77764257171E-05  5.97052722654E-05
  6.16665356461E-05  6.36607606671E-05  6.56885012926E-05  6.77503207971E-05
  6.98467919213E-05  7.19784970319E-05  7.41460282829E-05  7.63499877802E-05
  7.85909877490E-05  8.08696507036E-05  8.31866096207E-05  8.55425081149E-05
  8.79380006174E-05  9.03737525585E-05  9.28504405514E-05  9.53687525809E-05
  9.79293881945E-05  1.00533058696E-04  1.03180487344E-04  1.05872409553E-04
  1.08609573096E-04  1.11392738314E-04  1.14222678326E-04  1.17100179245E-04
  1.20026040394E-04  1.23001074533E-04  1.26026108079E-04  1.29101981338E-04
  1.32229548739E-04  1.35409679071E-04  1.38643255724E-04  1.41931176935E-04
  1.45274356036E-04  1.48673721709E-04  1.52130218245E-04  1.55644805804E-04
  1.59218460682E-04  1.62852175585E-04  1.66546959901E-04  1.70303839983E-04
  1.74123859433E-04  1.78008079392E-04  1.81957578835E-04  1.85973454870E-04
  1.90056823045E-04  1.94208817654E-04  1.98430592057E-04  2.02723318995E-04
  2.07088190920E-04  2.11526420325E-04  2.16039240079E-04  2.20627903774E-04
  2.25293686066E-04  2.30037883037E-04  2.34861812550E-04  2.39766814616E-04
  2.44754251767E-04  2.49825509435E-04  2.54981996335E-04  2.60225144857E-04
  2.65556411465E-04  2.70977277102E-04  2.76489247597E-04  2.82093854089E-04
  2.87792653450E-04  2.93587228716E-04  2.99479189528E-04  3.05470172580E-04
  3.11561842073E-04  3.17755890176E-04  3.24054037498E-04  3.30458033564E-04
  3.36969657304E-04  3.43590717544E-04  3.50323053510E-04  3.57168535338E-04
  3.64129064596E-04  3.71206574808E-04  3.78403031995E-04  3.85720435219E-04
  3.93160817139E-04  4.00726244576E-04  4.08418819086E-04  4.16240677544E-04
  4.24193992740E-04  4.32280973979E-04  4.40503867697E-04  4.48864958083E-04
  4.57366567717E-04  4.66011058210E-04  4.74800830868E-04  4.83738327348E-04
  4.92826030347E-04  5.02066464285E-04  5.11462196009E-04  5.21015835504E-04
  5.30730036621E-04  5.40607497812E-04  5.50650962878E-04  5.60863221737E-04
  5.71247111192E-04  5.81805515724E-04  5.92541368291E-04  6.03457651144E-04
  6.14557396652E-04  6.25843688151E-04  6.37319660793E-04  6.48988502423E-04
  6.60853454461E-04  6.72917812803E-04  6.85184928736E-04  6.97658209874E-04
  7.10341121095E-04  7.23237185512E-04  7.36349985448E-04  7.49683163433E-04
  7.63240423212E-04  7.77025530777E-04  7.91042315415E-04  8.05294670767E-04
  8.19786555911E-04  8.34521996465E-04  8.49505085702E-04  8.64739985686E-04
  8.80230928433E-04  8.95982217081E-04  9.11998227091E-04  9.28283407456E-04
  9.44842281943E-04  9.61679450346E-04  9.78799589763E-04  9.96207455900E-04
  1.01390788439E-03  1.03190579212E-03  1.05020617864E-03  1.06881412750E-03
  1.08773480770E-03  1.10697347510E-03  1.12653547390E-03  1.14642623811E-03
  1.16665129308E-03  1.18721625701E-03  1.20812684252E-03  1.22938885823E-03
  1.25100821040E-03  1.27299090455E-03  1.29534304712E-03  1.31807084718E-03
  1.34118061816E-03  1.36467877959E-03  1.38857185888E-03  1.41286649315E-03
  1.43756943108E-03  1.46268753474E-03  1.48822778155E-03  1.51419726618E-03
  1.54060320256E-03  1.56745292583E-03  1.59475389441E-03  1.62251369209E-03
  1.65074003011E-03  1.67944074929E-03  1.70862382223E-03  1.73829735554E-03
  1.76846959206E-03  1.79914891315E-03  1.83034384105E-03  1.86206304121E-03
  1.89431532473E-03  1.92710965078E-03  1.96045512911E-03  1.99436102257E-03
  2.02883674967E-03  2.06389188724E-03  2.09953617302E-03  2.13577950846E-03
  2.17263196136E-03  2.21010376876E-03  2.24820533973E-03  2.28694725830E-03
  2.32634028634E-03  2.36639536664E-03  2.40712362584E-03  2.44853637763E-03
  2.49064512580E-03  2.53346156751E-03  2.57699759648E-03  2.62126530634E-03
  2.66627699396E-03  2.71204516287E-03  2.75858252675E-03  2.80590201294E-03
  2.85401676605E-03  2.90294015160E-03  2.95268575973E-03  3.00326740898E-03
  3.05469915014E-03  3.10699527014E-03  3.16017029601E-03  3.21423899893E-03
  3.26921639834E-03  3.32511776608E-03  3.38195863068E-03  3.43975478163E-03
  3.49852227378E-03  3.55827743183E-03  3.61903685480E-03  3.68081742072E-03
  3.74363629123E-03  3.80751091643E-03  3.87245903969E-03  3.93849870257E-03
  4.00564824984E-03  4.07392633459E-03  4.14335192339E-03  4.21394430157E-03
  4.28572307858E-03  4.35870819343E-03  4.43291992023E-03  4.50837887384E-03
  4.58510601555E-03  4.66312265895E-03  4.74245047584E-03  4.82311150222E-03
  4.90512814447E-03  4.98852318550E-03  5.07331979115E-03  5.15954151656E-03
  5.24721231278E-03  5.33635653336E-03  5.42699894117E-03  5.51916471523E-03
  5.61287945774E-03  5.70816920118E-03  5.80506041552E-03  5.90358001562E-03
  6.00375536868E-03  6.10561430181E-03  6.20918510983E-03  6.31449656306E-03
  6.42157791537E-03  6.53045891227E-03  6.64116979917E-03  6.75374132982E-03
  6.86820477480E-03  6.98459193025E-03  7.10293512670E-03  7.22326723800E-03
  7.34562169052E-03  7.47003247239E-03  7.59653414296E-03  7.72516184241E-03
  7.85595130147E-03  7.98893885139E-03  8.12416143401E-03  8.26165661203E-03
  8.40146257944E-03  8.54361817213E-03  8.68816287867E-03  8.83513685131E-03
  8.98458091709E-03  9.13653658921E-03  9.29104607857E-03  9.44815230545E-03
  9.60789891148E-03  9.77033027175E-03  9.93549150713E-03  1.01034284968E-02
  1.02741878910E-02  1.04478171240E-02  1.06243644272E-02  1.08038788428E-02
  1.09864102369E-02  1.11720093140E-02  1.13607276304E-02  1.15526176093E-02
  1.17477325545E-02  1.19461266659E-02  1.21478550544E-02  1.23529737568E-02
  1.25615397518E-02  1.27736109759E-02  1.29892463390E-02  1.32085057413E-02
  1.34314500896E-02  1.36581413142E-02  1.38886423864E-02  1.41230173358E-02
  1.43613312681E-02  1.46036503830E-02  1.48500419930E-02  1.51005745419E-02
  1.53553176235E-02  1.56143420015E-02  1.58777196288E-02  1.61455236675E-02
  1.64178285094E-02  1.66947097964E-02  1.69762444418E-02  1.72625106514E-02
  1.75535879456E-02  1.78495571809E-02  1.81505005730E-02  1.84565017191E-02
  1.87676456217E-02  1.90840187114E-02  1.94057088718E-02  1.97328054633E-02
  2.00653993483E-02  2.04035829159E-02  2.07474501083E-02  2.10970964463E-02
  2.14526190562E-02  2.18141166966E-02  2.21816897857E-02  2.25554404297E-02
  2.29354724504E-02  2.33218914148E-02  2.37148046640E-02  2.41143213431E-02
  2.45205524314E-02  2.49336107737E-02  2.53536111109E-02  2.57806701126E-02
  2.62149064089E-02  2.66564406239E-02  2.71053954088E-02  2.75618954762E-02
  2.80260676345E-02  2.84980408234E-02  2.89779461497E-02  2.94659169235E-02
  2.99620886953E-02  3.04665992938E-02  3.09795888641E-02  3.15011999066E-02
  3.20315773167E-02  3.25708684247E-02  3.31192230373E-02  3.36767934786E-02
  3.42437346330E-02  3.48202039878E-02  3.54063616770E-02  3.60023705259E-02
  3.66083960965E-02  3.72246067331E-02  3.78511736092E-02  3.84882707752E-02
  3.91360752067E-02  3.97947668535E-02  4.04645286897E-02  4.11455467647E-02
  4.18380102544E-02  4.25421115143E-02  4.32580461326E-02  4.39860129846E-02
  4.47262142880E-02  4.54788556591E-02  4.62441461698E-02  4.70222984056E-02
  4.78135285249E-02  4.86180563191E-02  4.94361052732E-02  5.02679026283E-02
  5.11136794445E-02  5.19736706654E-02  5.28481151828E-02  5.37372559037E-02
  5.46413398173E-02  5.55606180639E-02  5.64953460044E-02  5.74457832915E-02
  5.84121939416E-02  5.93948464084E-02  6.03940136573E-02  6.14099732410E-02
  6.24430073772E-02  6.34934030263E-02  6.45614519718E-02  6.56474509007E-02
  6.67517014864E-02  6.78745104722E-02  6.90161897569E-02  7.01770564808E-02
  7.13574331144E-02  7.25576475477E-02  7.37780331813E-02  7.50189290190E-02
  7.62806797622E-02  7.75636359052E-02  7.88681538330E-02  8.01945959201E-02
  8.15433306312E-02  8.29147326234E-02  8.43091828507E-02  8.57270686691E-02
  8.71687839450E-02  8.86347291642E-02  9.01253115431E-02  9.16409451419E-02
  9.31820509797E-02  9.47490571514E-02  9.63423989465E-02  9.79625189703E-02
  9.96098672664E-02  1.01284901442E-01  1.02988086796E-01  1.04719896445E-01
  1.06480811460E-01  1.08271320994E-01  1.10091922423E-01  1.11943121481E-01
  1.13825432402E-01  1.15739378062E-01  1.17685490125E-01  1.19664309191E-01
  1.21676384943E-01  1.23722276305E-01  1.25802551594E-01  1.27917788676E-01
  1.30068575132E-01  1.32255508415E-01  1.34479196022E-01  1.36740255657E-01
  1.39039315408E-01  1.41377013916E-01  1.43754000558E-01  1.46170935623E-01
  1.48628490496E-01  1.51127347849E-01  1.53668201824E-01  1.56251758231E-01
  1.58878734740E-01  1.61549861084E-01  1.64265879260E-01  1.67027543735E-01
  1.69835621656E-01  1.72690893062E-01  1.75594151102E-01  1.78546202256E-01
  1.81547866557E-01  1.84599977820E-01  1.87703383874E-01  1.90858946795E-01
  1.94067543149E-01  1.97330064233E-01  2.00647416324E-01  2.04020520931E-01
  2.07450315048E-01  2.10937751418E-01  2.14483798797E-01  2.18089442219E-01
  2.21755683275E-01  2.25483540390E-01  2.29274049103E-01  2.33128262358E-01
  2.37047250795E-01  2.41032103046E-01  2.45083926040E-01  2.49203845310E-01
  2.53393005305E-01  2.57652569707E-01  2.61983721755E-01  2.66387664575E-01
  2.70865621514E-01  2.75418836476E-01  2.80048574273E-01  2.84756120974E-01
  2.89542784259E-01  2.94409893789E-01  2.99358801570E-01  3.04390882330E-01
  3.09507533902E-01  3.14710177610E-01  3.20000258668E-01  3.25379246576E-01
  3.30848635532E-01  3.36409944845E-01  3.42064719360E-01  3.47814529884E-01
  3.53660973623E-01  3.59605674628E-01  3.65650284241E-01  3.71796481561E-01
  3.78045973903E-01  3.84400497278E-01  3.90861816873E-01  3.97431727540E-01
  4.04112054296E-01  4.10904652830E-01  4.17811410020E-01  4.24834244452E-01
  4.31975106961E-01  4.39235981164E-01  4.46618884018E-01  4.54125866376E-01
  4.61759013560E-01  4.69520445938E-01  4.77412319512E-01  4.85436826521E-01
  4.93596196046E-01  5.01892694631E-01  5.10328626913E-01  5.18906336259E-01
  5.27628205422E-01  5.36496657201E-01  5.45514155110E-01  5.54683204068E-01
  5.64006351092E-01  5.73486186005E-01  5.83125342156E-01  5.92926497150E-01
  6.02892373592E-01  6.13025739847E-01  6.23329410803E-01  6.33806248657E-01
  6.44459163710E-01  6.55291115173E-01  6.66305111990E-01  6.77504213677E-01
  6.88891531167E-01  7.00470227677E-01  7.12243519586E-01  7.24214677329E-01
  7.36387026303E-01  7.48763947796E-01  7.61348879921E-01  7.74145318573E-01
  7.87156818401E-01  8.00386993794E-01  8.13839519885E-01  8.27518133574E-01
  8.41426634565E-01  8.55568886418E-01  8.69948817628E-01  8.84570422713E-01
  8.99437763324E-01  9.14554969373E-01  9.29926240182E-01  9.45555845646E-01
  9.61448127423E-01  9.77607500139E-01  9.94038452611E-01  1.01074554910E+00
  1.02773343057E+00  1.04500681599E+00  1.06257050363E+00  1.08042937241E+00
  1.09858838324E+00  1.11705258041E+00  1.13582709297E+00  1.15491713619E+00
  1.17432801299E+00  1.19406511539E+00  1.21413392606E+00  1.23454001979E+00
  1.25528906508E+00  1.27638682567E+00  1.29783916220E+00  1.31965203379E+00
  1.34183149970E+00  1.36438372104E+00  1.38731496247E+00  1.41063159391E+00
  1.43434009237E+00  1.45844704369E+00  1.48295914439E+00  1.50788320356E+00
  1.53322614470E+00  1.55899500768E+00  1.58519695068E+00  1.61183925220E+00
  1.63892931304E+00  1.66647465839E+00  1.69448293992E+00  1.72296193788E+00
  1.75191956329E+00  1.78136386011E+00  1.81130300752E+00  1.84174532213E+00
  1.87269926034E+00  1.90417342066E+00  1.93617654612E+00  1.96871752667E+00
  2.00180540170E+00  2.03544936249E+00  2.06965875480E+00  2.10444308145E+00
  2.13981200499E+00  2.17577535035E+00  2.21234310757E+00  2.24952543460E+00
  2.28733266011E+00  2.32577528633E+00  2.36486399204E+00  2.40460963544E+00
  2.44502325726E+00  2.48611608376E+00  2.52789952988E+00  2.57038520240E+00
  2.61358490317E+00  2.65751063238E+00  2.70217459191E+00  2.74758918870E+00
  2.79376703821E+00  2.84072096791E+00  2.88846402087E+00  2.93700945935E+00
  2.98637076851E+00  3.03656166014E+00  3.08759607647E+00  3.13948819407E+00
  3.19225242774E+00  3.24590343455E+00  3.30045611791E+00  3.35592563169E+00
  3.41232738445E+00  3.46967704369E+00  3.52799054026E+00  3.58728407272E+00
  3.64757411187E+00  3.70887740534E+00  3.77121098221E+00  3.83459215777E+00
  3.89903853831E+00  3.96456802601E+00  4.03119882393E+00  4.09894944106E+00
  4.16783869743E+00  4.23788572942E+00  4.30910999496E+00  4.38153127905E+00
  4.45516969916E+00  4.53004571088E+00  4.60618011360E+00  4.68359405625E+00
  4.76230904319E+00  4.84234694021E+00  4.92372998056E+00  5.00648077119E+00
  5.09062229894E+00  5.17617793700E+00  5.26317145139E+00  5.35162700751E+00
  5.44156917694E+00  5.53302294419E+00  5.62601371366E+00  5.72056731673E+00
  5.81671001888E+00  5.91446852706E+00  6.01386999702E+00  6.11494204093E+00
  6.21771273500E+00  6.32221062731E+00  6.42846474572E+00  6.53650460595E+00
  6.64636021976E+00  6.75806210332E+00  6.87164128563E+00  6.98712931721E+00
  7.10455827881E+00  7.22396079033E+00  7.34537001990E+00  7.46881969310E+00
  7.59434410230E+00  7.72197811619E+00  7.85175718948E+00  7.98371737275E+00
  8.11789532247E+00  8.25432831114E+00  8.39305423769E+00  8.53411163799E+00
  8.67753969557E+00  8.82337825247E+00  8.97166782034E+00  9.12244959168E+00
  9.27576545129E+00  9.43165798788E+00  9.59017050596E+00  9.75134703778E+00
  9.91523235564E+00  1.00818719843E+01  1.02513122136E+01  1.04236001114E+01
  1.05987835365E+01  1.07769111522E+01  1.09580324394E+01  1.11421977108E+01
  1.13294581246E+01  1.15198656987E+01  1.17134733255E+01  1.19103347860E+01
  1.21105047653E+01  1.23140388674E+01  1.25209936308E+01  1.27314265444E+01
  1.29453960630E+01  1.31629616240E+01  1.33841836638E+01  1.36091236342E+01
  1.38378440201E+01  1.40704083564E+01  1.43068812458E+01  1.45473283766E+01
  1.47918165414E+01  1.50404136550E+01  1.52931887739E+01  1.55502121149E+01
  1.58115550751E+01  1.60772902515E+01  1.63474914610E+01  1.66222337613E+01
  1.69015934715E+01  1.71856481933E+01  1.74744768326E+01  1.77681596214E+01
  1.80667781402E+01  1.83704153404E+01  1.86791555678E+01  1.89930845855E+01
  1.93122895979E+01  1.96368592752E+01  1.99668837778E+01  2.03024547812E+01
  2.06436655017E+01  2.09906107224E+01  2.13433868190E+01  2.17020917873E+01
  2.20668252698E+01  2.24376885837E+01  2.28147847490E+01  2.31982185170E+01
  2.35880963996E+01  2.39845266987E+01  2.43876195364E+01  2.47974868855E+01
  2.52142426007E+01  2.56380024501E+01  2.60688841476E+01  2.65070073852E+01
  2.69524938667E+01  2.74054673412E+01  2.78660536375E+01  2.83343806994E+01
  2.88105786205E+01  2.92947796813E+01  2.97871183850E+01  3.02877314957E+01
  3.07967580757E+01  3.13143395246E+01  3.18406196183E+01  3.23757445491E+01
  3.29198629664E+01  3.34731260175E+01  3.40356873902E+01  3.46077033553E+01
  3.51893328096E+01  3.57807373207E+01  3.63820811714E+01  3.69935314056E+01
  3.76152578744E+01  3.82474332836E+01  3.88902332416E+01  3.95438363081E+01
  4.02084240437E+01  4.08841810603E+01  4.15712950726E+01  4.22699569501E+01
  4.29803607698E+01  4.37027038709E+01  4.44371869087E+01  4.51840139112E+01
  4.59433923350E+01  4.67155331235E+01  4.75006507652E+01  4.82989633533E+01
  4.91106926466E+01  4.99360641305E+01  5.07753070803E+01  5.16286546244E+01
  5.24963438093E+01  5.33786156653E+01  5.42757152735E+01  5.51878918342E+01
  5.61153987355E+01  5.70584936243E+01  5.80174384773E+01  5.89924996744E+01
  5.99839480720E+01  6.09920590790E+01  6.20171127327E+01  6.30593937767E+01
  6.41191917403E+01  6.51968010186E+01  6.62925209545E+01  6.74066559217E+01
  6.85395154092E+01  6.96914141075E+01  7.08626719959E+01  7.20536144313E+01
  7.32645722388E+01  7.44958818033E+01  7.57478851632E+01  7.70209301051E+01
  7.83153702610E+01  7.96315652057E+01  8.09698805576E+01  8.23306880794E+01
  8.37143657820E+01  8.51212980293E+01  8.65518756447E+01  8.80064960202E+01
  8.94855632263E+01  9.09894881245E+01  9.25186884814E+01  9.40735890848E+01
  9.56546218614E+01  9.72622259972E+01  9.88968480592E+01  1.00558942120E+02
  1.02248969882E+02  1.03967400809E+02  1.05714712255E+02  1.07491389593E+02
  1.09297926358E+02  1.11134824377E+02  1.13002593911E+02  1.14901753796E+02
  1.16832831591E+02  1.18796363716E+02  1.20792895611E+02  1.22822981881E+02
  1.24887186451E+02  1.26986082726E+02  1.29120253744E+02  1.31290292346E+02
  1.33496801334E+02  1.35740393640E+02  1.38021692500E+02  1.40341331623E+02
  1.42699955367E+02  1.45098218921E+02  1.47536788484E+02  1.50016341453E+02
  1.52537566609E+02  1.55101164307E+02  1.57707846676E+02  1.60358337810E+02
  1.63053373973E+02  1.65793703804E+02  1.68580088524E+02  1.71413302146E+02
  1.74294131693E+02  1.77223377412E+02  1.80201853003E+02  1.83230385838E+02
  1.86309817197E+02  1.89441002497E+02  1.92624811532E+02  1.95862128713E+02
  1.99153853316E+02  2.02500899730E+02  2.05904197713E+02
  </PP_R>
  <PP_RAB>
  9.49877047453E-07  9.65840994938E-07  9.82073237800E-07  9.98578285098E-07
  1.01536072167E-06  1.03242520942E-06  1.04977648859E-06  1.06741937909E-06
  1.08535878184E-06  1.10359968011E-06  1.12214714095E-06  1.14100631654E-06
  1.16018244567E-06  1.17968085516E-06  1.19950696136E-06  1.21966627166E-06
  1.24016438598E-06  1.26100699838E-06  1.28219989862E-06  1.30374897374E-06
  1.32566020973E-06  1.34793969319E-06  1.37059361302E-06  1.39362826210E-06
  1.41705003911E-06  1.44086545024E-06  1.46508111104E-06  1.48970374824E-06
  1.51474020161E-06  1.54019742589E-06  1.56608249268E-06  1.59240259247E-06
  1.61916503655E-06  1.64637725910E-06  1.67404681926E-06  1.70218140318E-06
  1.73078882622E-06  1.75987703507E-06  1.78945410996E-06  1.81952826694E-06
  1.85010786014E-06  1.88120138409E-06  1.91281747607E-06  1.94496491854E-06
  1.97765264155E-06  2.01088972524E-06  2.04468540233E-06  2.07904906074E-06
  2.11399024614E-06  2.14951866465E-06  2.18564418550E-06  2.22237684379E-06
  2.25972684327E-06  2.29770455918E-06  2.33632054113E-06  2.37558551603E-06
  2.41551039108E-06  2.45610625676E-06  2.49738438998E-06  2.53935625713E-06
  2.58203351736E-06  2.62542802572E-06  2.66955183653E-06  2.71441720668E-06
  2.76003659906E-06  2.80642268602E-06  2.85358835288E-06  2.90154670153E-06
  2.95031105403E-06  2.99989495634E-06  3.05031218210E-06  3.10157673642E-06
  3.15370285977E-06  3.20670503197E-06  3.26059797619E-06  3.31539666303E-06
  3.37111631471E-06  3.42777240927E-06  3.48538068487E-06  3.54395714418E-06
  3.60351805882E-06  3.66407997387E-06  3.72565971247E-06  3.78827438050E-06
  3.85194137134E-06  3.91667837065E-06  3.98250336137E-06  4.04943462862E-06
  4.11749076487E-06  4.18669067502E-06  4.25705358173E-06  4.32859903070E-06
  4.40134689612E-06  4.47531738620E-06  4.55053104878E-06  4.62700877701E-06
  4.70477181522E-06  4.78384176474E-06  4.86424058995E-06  4.94599062439E-06
  5.02911457691E-06  5.11363553804E-06  5.19957698636E-06  5.28696279507E-06
  5.37581723854E-06  5.46616499915E-06  5.55803117407E-06  5.65144128228E-06
  5.74642127163E-06  5.84299752606E-06  5.94119687292E-06  6.04104659046E-06
  6.14257441534E-06  6.24580855039E-06  6.35077767241E-06  6.45751094018E-06
  6.56603800252E-06  6.67638900652E-06  6.78859460595E-06  6.90268596975E-06
  7.01869479071E-06  7.13665329425E-06  7.25659424736E-06  7.37855096776E-06
  7.50255733310E-06  7.62864779038E-06  7.75685736555E-06  7.88722167319E-06
  8.01977692646E-06  8.15455994711E-06  8.29160817574E-06  8.43095968217E-06
  8.57265317606E-06  8.71672801763E-06  8.86322422858E-06  9.01218250325E-06
  9.16364421990E-06  9.31765145220E-06  9.47424698093E-06  9.63347430586E-06
  9.79537765781E-06  9.96000201098E-06  1.01273930954E-05  1.02975974097E-05
  1.04706622340E-05  1.06466356429E-05  1.08255665190E-05  1.10075045665E-05
  1.11925003250E-05  1.13806051833E-05  1.15718713940E-05  1.17663520878E-05
  1.19641012885E-05  1.21651739275E-05  1.23696258597E-05  1.25775138787E-05
  1.27888957324E-05  1.30038301393E-05  1.32223768049E-05  1.34445964380E-05
  1.36705507676E-05  1.39003025604E-05  1.41339156377E-05  1.43714548936E-05
  1.46129863126E-05  1.48585769885E-05  1.51082951425E-05  1.53622101422E-05
  1.56203925213E-05  1.58829139988E-05  1.61498474990E-05  1.64212671717E-05
  1.66972484132E-05  1.69778678865E-05  1.72632035435E-05  1.75533346458E-05
  1.78483417872E-05  1.81483069161E-05  1.84533133581E-05  1.87634458391E-05
  1.90787905091E-05  1.93994349658E-05  1.97254682791E-05  2.00569810160E-05
  2.03940652655E-05  2.07368146643E-05  2.10853244227E-05  2.14396913513E-05
  2.18000138875E-05  2.21663921233E-05  2.25389278328E-05  2.29177245005E-05
  2.33028873502E-05  2.36945233739E-05  2.40927413621E-05  2.44976519333E-05
  2.49093675654E-05  2.53280026264E-05  2.57536734066E-05  2.61864981505E-05
  2.66265970901E-05  2.70740924779E-05  2.75291086210E-05  2.79917719157E-05
  2.84622108826E-05  2.89405562022E-05  2.94269407513E-05  2.99214996398E-05
  3.04243702484E-05  3.09356922666E-05  3.14556077316E-05  3.19842610676E-05
  3.25217991263E-05  3.30683712272E-05  3.36241291993E-05  3.41892274236E-05
  3.47638228753E-05  3.53480751681E-05  3.59421465979E-05  3.65462021884E-05
  3.71604097367E-05  3.77849398600E-05  3.84199660430E-05  3.90656646857E-05
  3.97222151532E-05  4.03897998247E-05  4.10686041448E-05  4.17588166746E-05
  4.24606291441E-05  4.31742365059E-05  4.38998369888E-05  4.46376321532E-05
  4.53878269468E-05  4.61506297620E-05  4.69262524933E-05  4.77149105965E-05
  4.85168231483E-05  4.93322129074E-05  5.01613063762E-05  5.10043338638E-05
  5.18615295499E-05  5.27331315498E-05  5.36193819809E-05  5.45205270296E-05
  5.54368170197E-05  5.63685064821E-05  5.73158542254E-05  5.82791234079E-05
  5.92585816105E-05  6.02545009113E-05  6.12671579609E-05  6.22968340594E-05
  6.33438152346E-05  6.44083923214E-05  6.54908610424E-05  6.65915220903E-05
  6.77106812115E-05  6.88486492906E-05  7.00057424372E-05  7.11822820736E-05
  7.23785950238E-05  7.35950136046E-05  7.48318757180E-05  7.60895249448E-05
  7.73683106399E-05  7.86685880300E-05  7.99907183114E-05  8.13350687512E-05
  8.27020127886E-05  8.40919301392E-05  8.55052068999E-05  8.69422356568E-05
  8.84034155938E-05  8.98891526035E-05  9.13998594003E-05  9.29359556346E-05
  9.44978680098E-05  9.60860304004E-05  9.77008839728E-05  9.93428773079E-05
  1.01012466525E-04  1.02710115411E-04  1.04436295545E-04  1.06191486432E-04
  1.07976175637E-04  1.09790858919E-04  1.11636040367E-04  1.13512232544E-04
  1.15419956627E-04  1.17359742552E-04  1.19332129159E-04  1.21337664347E-04
  1.23376905223E-04  1.25450418254E-04  1.27558779430E-04  1.29702574421E-04
  1.31882398739E-04  1.34098857904E-04  1.36352567614E-04  1.38644153915E-04
  1.40974253371E-04  1.43343513250E-04  1.45752591692E-04  1.48202157903E-04
  1.50692892332E-04  1.53225486868E-04  1.55800645024E-04  1.58419082138E-04
  1.61081525572E-04  1.63788714910E-04  1.66541402166E-04  1.69340351994E-04
  1.72186341897E-04  1.75080162447E-04  1.78022617502E-04  1.81014524428E-04
  1.84056714330E-04  1.87150032281E-04  1.90295337555E-04  1.93493503869E-04
  1.96745419622E-04  2.00051988147E-04  2.03414127954E-04  2.06832772993E-04
  2.10308872911E-04  2.13843393312E-04  2.17437316031E-04  2.21091639403E-04
  2.24807378540E-04  2.28585565617E-04  2.32427250155E-04  2.36333499311E-04
  2.40305398182E-04  2.44344050098E-04  2.48450576932E-04  2.52626119412E-04
  2.56871837439E-04  2.61188910406E-04  2.65578537528E-04  2.70041938173E-04
  2.74580352204E-04  2.79195040321E-04  2.83887284410E-04  2.88658387905E-04
  2.93509676141E-04  2.98442496729E-04  3.03458219931E-04  3.08558239033E-04
  3.13743970742E-04  3.19016855571E-04  3.24378358244E-04  3.29829968103E-04
  3.35373199518E-04  3.41009592312E-04  3.46740712185E-04  3.52568151153E-04
  3.58493527985E-04  3.64518488657E-04  3.70644706810E-04  3.76873884208E-04
  3.83207751220E-04  3.89648067294E-04  3.96196621447E-04  4.02855232765E-04
  4.09625750905E-04  4.16510056609E-04  4.23510062230E-04  4.30627712258E-04
  4.37864983863E-04  4.45223887447E-04  4.52706467195E-04  4.60314801651E-04
  4.68051004289E-04  4.75917224104E-04  4.83915646209E-04  4.92048492439E-04
  5.00318021969E-04  5.08726531944E-04  5.17276358116E-04  5.25969875492E-04
  5.34809498992E-04  5.43797684126E-04  5.52936927669E-04  5.62229768358E-04
  5.71678787598E-04  5.81286610177E-04  5.91055904997E-04  6.00989385813E-04
  6.11089811990E-04  6.21359989266E-04  6.31802770534E-04  6.42421056635E-04
  6.53217797159E-04  6.64195991273E-04  6.75358688543E-04  6.86708989792E-04
  6.98250047954E-04  7.09985068952E-04  7.21917312590E-04  7.34050093457E-04
  7.46386781848E-04  7.58930804699E-04  7.71685646543E-04  7.84654850474E-04
  7.97842019130E-04  8.11250815699E-04  8.24884964934E-04  8.38748254185E-04
  8.52844534456E-04  8.67177721470E-04  8.81751796761E-04  8.96570808776E-04
  9.11638874003E-04  9.26960178113E-04  9.42538977121E-04  9.58379598572E-04
  9.74486442741E-04  9.90863983855E-04  1.00751677134E-03  1.02444943106E-03
  1.04166666667E-03  1.05917326082E-03  1.07697407658E-03  1.09507405873E-03
  1.11347823515E-03  1.13219171825E-03  1.15121970633E-03  1.17056748506E-03
  1.19024042895E-03  1.21024400284E-03  1.23058376340E-03  1.25126536070E-03
  1.27229453975E-03  1.29367714213E-03  1.31541910760E-03  1.33752647572E-03
  1.36000538757E-03  1.38286208744E-03  1.40610292456E-03  1.42973435487E-03
  1.45376294280E-03  1.47819536312E-03  1.50303840277E-03  1.52829896275E-03
  1.55398406004E-03  1.58010082957E-03  1.60665652616E-03  1.63365852655E-03
  1.66111433149E-03  1.68903156775E-03  1.71741799031E-03  1.74628148447E-03
  1.77563006804E-03  1.80547189361E-03  1.83581525076E-03  1.86666856839E-03
  1.89804041707E-03  1.92993951141E-03  1.96237471246E-03  1.99535503022E-03
  2.02888962610E-03  2.06298781547E-03  2.09765907028E-03  2.13291302165E-03
  2.16875946258E-03  2.20520835064E-03  2.24226981075E-03  2.27995413800E-03
  2.31827180051E-03  2.35723344232E-03  2.39684988635E-03  2.43713213742E-03
  2.47809138532E-03  2.51973900787E-03  2.56208657412E-03  2.60514584756E-03
  2.64892878938E-03  2.69344756179E-03  2.73871453139E-03  2.78474227264E-03
  2.83154357131E-03  2.87913142807E-03  2.92751906208E-03  2.97671991465E-03
  3.02674765300E-03  3.07761617405E-03  3.12933960828E-03  3.18193232363E-03
  3.23540892952E-03  3.28978428093E-03  3.34507348245E-03  3.40129189256E-03
  3.45845512785E-03  3.51657906736E-03  3.57567985699E-03  3.63577391402E-03
  3.69687793163E-03  3.75900888355E-03  3.82218402877E-03  3.88642091635E-03
  3.95173739029E-03  4.01815159448E-03  4.08568197771E-03  4.15434729889E-03
  4.22416663213E-03  4.29515937216E-03  4.36734523963E-03  4.44074428663E-03
  4.51537690228E-03  4.59126381831E-03  4.66842611494E-03  4.74688522661E-03
  4.82666294803E-03  4.90778144020E-03  4.99026323655E-03  5.07413124921E-03
  5.15940877541E-03  5.24611950389E-03  5.33428752152E-03  5.42393731998E-03
  5.51509380257E-03  5.60778229113E-03  5.70202853305E-03  5.79785870845E-03
  5.89529943743E-03  5.99437778751E-03  6.09512128106E-03  6.19755790306E-03
  6.30171610876E-03  6.40762483169E-03  6.51531349160E-03  6.62481200271E-03
  6.73615078197E-03  6.84936075755E-03  6.96447337737E-03  7.08152061792E-03
  7.20053499306E-03  7.32154956311E-03  7.44459794401E-03  7.56971431665E-03
  7.69693343639E-03  7.82629064268E-03  7.95782186892E-03  8.09156365240E-03
  8.22755314449E-03  8.36582812090E-03  8.50642699226E-03  8.64938881470E-03
  8.79475330076E-03  8.94256083039E-03  9.09285246221E-03  9.24566994484E-03
  9.40105572858E-03  9.55905297713E-03  9.71970557964E-03  9.88305816287E-03
  1.00491561036E-02  1.02180455412E-02  1.03897733904E-02  1.05643873547E-02
  1.07419359389E-02  1.09224684633E-02  1.11060350769E-02  1.12926867717E-02
  1.14824753965E-02  1.16754536717E-02  1.18716752035E-02  1.20711944992E-02
  1.22740669821E-02  1.24803490070E-02  1.26900978757E-02  1.29033718533E-02
  1.31202301837E-02  1.33407331069E-02  1.35649418751E-02  1.37929187700E-02
  1.40247271198E-02  1.42604313173E-02  1.45000968375E-02  1.47437902556E-02